
variables = "r", "UA(r)", "Uncertainty"
zone T = "State 1 UA(r)  77N9p6q3Rf3_6R      "

    2.200000    1.1550938958487D-01  2.153D-02
    2.225000    1.1533861772365D-01  2.149D-02
    2.250000    1.1515852634696D-01  2.146D-02
    2.275000    1.1496875757795D-01  2.143D-02
    2.300000    1.1476894875603D-01  2.139D-02
    2.325000    1.1455873298906D-01  2.135D-02
    2.350000    1.1433773975550D-01  2.131D-02
    2.375000    1.1410559555760D-01  2.126D-02
    2.400000    1.1386192462668D-01  2.122D-02
    2.425000    1.1360634968125D-01  2.117D-02
    2.450000    1.1333849273843D-01  2.112D-02
    2.475000    1.1305797597895D-01  2.107D-02
    2.500000    1.1276442266568D-01  2.101D-02
    2.525000    1.1245745811508D-01  2.096D-02
    2.550000    1.1213671072107D-01  2.090D-02
    2.575000    1.1180181302978D-01  2.083D-02
    2.600000    1.1145240286383D-01  2.077D-02
    2.625000    1.1108812449389D-01  2.070D-02
    2.650000    1.1070862985499D-01  2.063D-02
    2.675000    1.1031357980456D-01  2.056D-02
    2.700000    1.0990264541860D-01  2.048D-02
    2.725000    1.0947550932180D-01  2.040D-02
    2.750000    1.0903186704705D-01  2.032D-02
    2.775000    1.0857142841905D-01  2.023D-02
    2.800000    1.0809391895638D-01  2.014D-02
    2.825000    1.0759908128564D-01  2.005D-02
    2.850000    1.0708667656085D-01  1.996D-02
    2.875000    1.0655648588094D-01  1.986D-02
    2.900000    1.0600831169738D-01  1.976D-02
    2.925000    1.0544197920380D-01  1.965D-02
    2.950000    1.0485733769907D-01  1.954D-02
    2.975000    1.0425426191479D-01  1.943D-02
    3.000000    1.0363265329799D-01  1.931D-02
    3.025000    1.0299244123969D-01  1.919D-02
    3.050000    1.0233358423979D-01  1.907D-02
    3.075000    1.0165607099854D-01  1.894D-02
    3.100000    1.0095992142526D-01  1.881D-02
    3.125000    1.0024518755484D-01  1.868D-02
    3.150000    9.9511954362833D-02  1.854D-02
    3.175000    9.8760340470430D-02  1.840D-02
    3.200000    9.7990498730934D-02  1.826D-02
    3.225000    9.7202616689986D-02  1.811D-02
    3.250000    9.6396916912435D-02  1.796D-02
    3.275000    9.5573657169519D-02  1.781D-02
    3.300000    9.4733130480889D-02  1.765D-02
    3.325000    9.3875665006967D-02  1.749D-02
    3.350000    9.3001623788178D-02  1.733D-02
    3.375000    9.2111404328679D-02  1.717D-02
    3.400000    9.1205438023415D-02  1.700D-02
    3.425000    9.0284189428538D-02  1.682D-02
    3.450000    8.9348155376466D-02  1.665D-02
    3.475000    8.8397863938159D-02  1.647D-02
    3.500000    8.7433873236444D-02  1.629D-02
    3.525000    8.6456770115507D-02  1.611D-02
    3.550000    8.5467168672863D-02  1.593D-02
    3.575000    8.4465708661353D-02  1.574D-02
    3.600000    8.3453053769801D-02  1.555D-02
    3.625000    8.2429889792019D-02  1.536D-02
    3.650000    8.1396922694820D-02  1.517D-02
    3.675000    8.0354876596519D-02  1.497D-02
    3.700000    7.9304491668146D-02  1.478D-02
    3.725000    7.8246521970207D-02  1.458D-02
    3.750000    7.7181733238297D-02  1.438D-02
    3.775000    7.6110900631170D-02  1.418D-02
    3.800000    7.5034806455131D-02  1.398D-02
    3.825000    7.3954237878566D-02  1.378D-02
    3.850000    7.2869984650422D-02  1.358D-02
    3.875000    7.1782836836147D-02  1.338D-02
    3.900000    7.0693582584259D-02  1.317D-02
    3.925000    6.9603005936217D-02  1.297D-02
    3.950000    6.8511884691655D-02  1.277D-02
    3.975000    6.7420988340318D-02  1.256D-02
    4.000000    6.6331076071228D-02  1.236D-02
    4.025000    6.5242894868734D-02  1.216D-02
    4.050000    6.4157177704105D-02  1.196D-02
    4.075000    6.3074641830371D-02  1.175D-02
    4.100000    6.1995987187004D-02  1.155D-02
    4.125000    6.0921894920009D-02  1.135D-02
    4.150000    5.9853026021893D-02  1.115D-02
    4.175000    5.8790020094898D-02  1.096D-02
    4.200000    5.7733494239842D-02  1.076D-02
    4.225000    5.6684042071852D-02  1.056D-02
    4.250000    5.5642232863308D-02  1.037D-02
    4.275000    5.4608610813349D-02  1.018D-02
    4.300000    5.3583694442425D-02  9.986D-03
    4.325000    5.2567976109532D-02  9.796D-03
    4.350000    5.1561921649031D-02  9.609D-03
    4.375000    5.0565970123258D-02  9.423D-03
    4.400000    4.9580533686538D-02  9.240D-03
    4.425000    4.8605997555661D-02  9.058D-03
    4.450000    4.7642720081474D-02  8.878D-03
    4.475000    4.6691032915817D-02  8.701D-03
    4.500000    4.5751241267774D-02  8.526D-03
    4.525000    4.4823624242967D-02  8.353D-03
    4.550000    4.3908435259473D-02  8.183D-03
    4.575000    4.3005902533845D-02  8.014D-03
    4.600000    4.2116229630718D-02  7.849D-03
    4.625000    4.1239596069473D-02  7.685D-03
    4.650000    4.0376157981548D-02  7.524D-03
    4.675000    3.9526048812094D-02  7.366D-03
    4.700000    3.8689380059848D-02  7.210D-03
    4.725000    3.7866242049300D-02  7.057D-03
    4.750000    3.7056704729473D-02  6.906D-03
    4.775000    3.6260818493879D-02  6.757D-03
    4.800000    3.5478615016508D-02  6.612D-03
    4.825000    3.4710108099013D-02  6.468D-03
    4.850000    3.3955294524536D-02  6.328D-03
    4.875000    3.3214154913957D-02  6.190D-03
    4.900000    3.2486654580670D-02  6.054D-03
    4.925000    3.1772744380284D-02  5.921D-03
    4.950000    3.1072361552004D-02  5.791D-03
    4.975000    3.0385430548726D-02  5.662D-03
    5.000000    2.9711863853202D-02  5.537D-03
    5.025000    2.9051562777922D-02  5.414D-03
    5.050000    2.8404418246644D-02  5.293D-03
    5.075000    2.7770311555787D-02  5.175D-03
    5.100000    2.7149115114136D-02  5.059D-03
    5.125000    2.6540693159582D-02  4.946D-03
    5.150000    2.5944902451828D-02  4.835D-03
    5.175000    2.5361592940223D-02  4.726D-03
    5.200000    2.4790608406066D-02  4.620D-03
    5.225000    2.4231787078935D-02  4.516D-03
    5.250000    2.3684962226738D-02  4.414D-03
    5.275000    2.3149962719349D-02  4.314D-03
    5.300000    2.2626613565846D-02  4.217D-03
    5.325000    2.2114736425459D-02  4.121D-03
    5.350000    2.1614150092487D-02  4.028D-03
    5.375000    2.1124670955532D-02  3.937D-03
    5.400000    2.0646113431458D-02  3.848D-03
    5.425000    2.0178290374612D-02  3.760D-03
    5.450000    1.9721013461859D-02  3.675D-03
    5.475000    1.9274093554078D-02  3.592D-03
    5.500000    1.8837341034787D-02  3.510D-03
    5.525000    1.8410566126617D-02  3.431D-03
    5.550000    1.7993579186386D-02  3.353D-03
    5.575000    1.7586190979535D-02  3.277D-03
    5.600000    1.7188212934719D-02  3.203D-03
    5.625000    1.6799457379348D-02  3.131D-03
    5.650000    1.6419737756888D-02  3.060D-03
    5.675000    1.6048868826717D-02  2.991D-03
    5.700000    1.5686666847342D-02  2.923D-03
    5.725000    1.5332949743773D-02  2.857D-03
    5.750000    1.4987537259829D-02  2.793D-03
    5.775000    1.4650251096159D-02  2.730D-03
    5.800000    1.4320915034717D-02  2.669D-03
    5.825000    1.3999355050443D-02  2.609D-03
    5.850000    1.3685399410852D-02  2.550D-03
    5.875000    1.3378878764241D-02  2.493D-03
    5.900000    1.3079626217174D-02  2.437D-03
    5.925000    1.2787477401911D-02  2.383D-03
    5.950000    1.2502270534400D-02  2.330D-03
    5.975000    1.2223846463431D-02  2.278D-03
    6.000000    1.1952048711543D-02  2.227D-03
    6.025000    1.1686723508233D-02  2.178D-03
    6.050000    1.1427719815996D-02  2.130D-03
    6.075000    1.1174889349701D-02  2.083D-03
    6.100000    1.0928086589801D-02  2.037D-03
    6.125000    1.0687168789809D-02  1.992D-03
    6.150000    1.0451995978506D-02  1.948D-03
    6.175000    1.0222430957269D-02  1.905D-03
    6.200000    9.9983392929323D-03  1.863D-03
    6.225000    9.7795893065380D-03  1.822D-03
    6.250000    9.5660520583309D-03  1.783D-03
    6.275000    9.3576013293300D-03  1.744D-03
    6.300000    9.1541135997844D-03  1.706D-03
    6.325000    8.9554680248084D-03  1.669D-03
    6.350000    8.7615464074682D-03  1.633D-03
    6.375000    8.5722331695804D-03  1.597D-03
    6.400000    8.3874153204625D-03  1.563D-03
    6.425000    8.2069824238612D-03  1.529D-03
    6.450000    8.0308265632704D-03  1.497D-03
    6.475000    7.8588423058358D-03  1.465D-03
    6.500000    7.6909266650287D-03  1.433D-03
    6.525000    7.5269790622615D-03  1.403D-03
    6.550000    7.3669012876018D-03  1.373D-03
    6.575000    7.2105974597343D-03  1.344D-03
    6.600000    7.0579739853053D-03  1.315D-03
    6.625000    6.9089395177766D-03  1.288D-03
    6.650000    6.7634049159062D-03  1.260D-03
    6.675000    6.6212832019619D-03  1.234D-03
    6.700000    6.4824895197670D-03  1.208D-03
    6.725000    6.3469410926698D-03  1.183D-03
    6.750000    6.2145571815189D-03  1.158D-03
    6.775000    6.0852590427208D-03  1.134D-03
    6.800000    5.9589698864497D-03  1.110D-03
    6.825000    5.8356148350717D-03  1.087D-03
    6.850000    5.7151208818418D-03  1.065D-03
    6.875000    5.5974168499240D-03  1.043D-03
    6.900000    5.4824333517831D-03  1.022D-03
    6.925000    5.3701027489887D-03  1.001D-03
    6.950000    5.2603591124689D-03  9.803D-04
    6.975000    5.1531381832485D-03  9.603D-04
    7.000000    5.0483773336997D-03  9.408D-04
    7.025000    4.9460155293315D-03  9.217D-04
    7.050000    4.8459932911417D-03  9.031D-04
    7.075000    4.7482526585492D-03  8.849D-04
    7.100000    4.6527371529246D-03  8.671D-04
    7.125000    4.5593917417335D-03  8.497D-04
    7.150000    4.4681628033024D-03  8.327D-04
    7.175000    4.3789980922190D-03  8.161D-04
    7.200000    4.2918467053727D-03  7.998D-04
    7.225000    4.2066590486412D-03  7.839D-04
    7.250000    4.1233868042272D-03  7.684D-04
    7.275000    4.0419828986475D-03  7.532D-04
    7.300000    3.9624014713750D-03  7.384D-04
    7.325000    3.8845978441329D-03  7.239D-04
    7.350000    3.8085284908398D-03  7.097D-04
    7.375000    3.7341510082028D-03  6.959D-04
    7.400000    3.6614240869541D-03  6.823D-04
    7.425000    3.5903074837274D-03  6.691D-04
    7.450000    3.5207619935676D-03  6.561D-04
    7.475000    3.4527494230687D-03  6.434D-04
    7.500000    3.3862325641310D-03  6.310D-04
    7.525000    3.3211751683333D-03  6.189D-04
    7.550000    3.2575419219088D-03  6.071D-04
    7.575000    3.1952984213186D-03  5.955D-04
    7.600000    3.1344111494130D-03  5.841D-04
    7.625000    3.0748474521718D-03  5.730D-04
    7.650000    3.0165755160141D-03  5.622D-04
    7.675000    2.9595643456681D-03  5.515D-04
    7.700000    2.9037837425910D-03  5.411D-04
    7.725000    2.8492042839284D-03  5.310D-04
    7.750000    2.7957973020050D-03  5.210D-04
    7.775000    2.7435348643330D-03  5.113D-04
    7.800000    2.6923897541322D-03  5.017D-04
    7.825000    2.6423354513473D-03  4.924D-04
    7.850000    2.5933461141554D-03  4.833D-04
    7.875000    2.5453965609509D-03  4.743D-04
    7.900000    2.4984622527993D-03  4.656D-04
    7.925000    2.4525192763484D-03  4.570D-04
    7.950000    2.4075443271876D-03  4.487D-04
    7.975000    2.3635146936442D-03  4.405D-04
    8.000000    2.3204082410082D-03  4.324D-04
    8.025000    2.2782033961733D-03  4.246D-04
    8.050000    2.2368791326870D-03  4.169D-04
    8.075000    2.1964149561979D-03  4.093D-04
    8.100000    2.1567908902920D-03  4.019D-04
    8.125000    2.1179874627077D-03  3.947D-04
    8.150000    2.0799856919210D-03  3.876D-04
    8.175000    2.0427670740904D-03  3.807D-04
    8.200000    2.0063135703546D-03  3.739D-04
    8.225000    1.9706075944721D-03  3.672D-04
    8.250000    1.9356320007951D-03  3.607D-04
    8.275000    1.9013700725690D-03  3.543D-04
    8.300000    1.8678055105492D-03  3.481D-04
    8.325000    1.8349224219265D-03  3.419D-04
    8.350000    1.8027053095538D-03  3.359D-04
    8.375000    1.7711390614659D-03  3.301D-04
    8.400000    1.7402089406843D-03  3.243D-04
    8.425000    1.7099005753005D-03  3.186D-04
    8.450000    1.6801999488291D-03  3.131D-04
    8.475000    1.6510933908246D-03  3.077D-04
    8.500000    1.6225675677544D-03  3.024D-04
    8.525000    1.5946094741209D-03  2.972D-04
    8.550000    1.5672064238269D-03  2.921D-04
    8.575000    1.5403460417760D-03  2.871D-04
    8.600000    1.5140162557039D-03  2.821D-04
    8.625000    1.4882052882323D-03  2.773D-04
    8.650000    1.4629016491406D-03  2.726D-04
    8.675000    1.4380941278485D-03  2.680D-04
    8.700000    1.4137717861051D-03  2.635D-04
    8.725000    1.3899239508768D-03  2.590D-04
    8.750000    1.3665402074311D-03  2.547D-04
    8.775000    1.3436103926078D-03  2.504D-04
    8.800000    1.3211245882756D-03  2.462D-04
    8.825000    1.2990731149670D-03  2.421D-04
    8.850000    1.2774465256863D-03  2.381D-04
    8.875000    1.2562355998877D-03  2.341D-04
    8.900000    1.2354313376175D-03  2.302D-04
    8.925000    1.2150249538152D-03  2.264D-04
    8.950000    1.1950078727708D-03  2.227D-04
    8.975000    1.1753717227331D-03  2.190D-04
    9.000000    1.1561083306640D-03  2.154D-04
    9.025000    1.1372097171361D-03  2.119D-04
    9.050000    1.1186680913688D-03  2.085D-04
    9.075000    1.1004758463992D-03  2.051D-04
    9.100000    1.0826255543840D-03  2.018D-04
    9.125000    1.0651099620286D-03  1.985D-04
    9.150000    1.0479219861404D-03  1.953D-04
    9.175000    1.0310547093023D-03  1.921D-04
    9.200000    1.0145013756626D-03  1.891D-04
    9.225000    9.9825538683951D-04  1.860D-04
    9.250000    9.8231029793527D-04  1.831D-04
    9.275000    9.6665981365843D-04  1.801D-04
    9.300000    9.5129778454998D-04  1.773D-04
    9.325000    9.3621820331117D-04  1.745D-04
    9.350000    9.2141520122993D-04  1.717D-04
    9.375000    9.0688304470314D-04  1.690D-04
    9.400000    8.9261613185209D-04  1.663D-04
    9.425000    8.7860898922848D-04  1.637D-04
    9.450000    8.6485626860850D-04  1.612D-04
    9.475000    8.5135274387246D-04  1.587D-04
    9.500000    8.3809330796762D-04  1.562D-04
    9.525000    8.2507296995180D-04  1.538D-04
    9.550000    8.1228685211579D-04  1.514D-04
    9.575000    7.9973018718188D-04  1.490D-04
    9.600000    7.8739831557693D-04  1.467D-04
    9.625000    7.7528668277750D-04  1.445D-04
    9.650000    7.6339083672521D-04  1.423D-04
    9.675000    7.5170642531035D-04  1.401D-04
    9.700000    7.4022919392182D-04  1.379D-04
    9.725000    7.2895498306157D-04  1.358D-04
    9.750000    7.1787972602181D-04  1.338D-04
    9.775000    7.0699944662305D-04  1.318D-04
    9.800000    6.9631025701158D-04  1.298D-04
    9.825000    6.8580835551447D-04  1.278D-04
    9.850000    6.7549002455069D-04  1.259D-04
    9.875000    6.6535162859668D-04  1.240D-04
    9.900000    6.5538961220492D-04  1.221D-04
    9.925000    6.4560049807405D-04  1.203D-04
    9.950000    6.3598088516908D-04  1.185D-04
    9.975000    6.2652744689032D-04  1.168D-04
   10.000000    6.1723692928974D-04  1.150D-04
   10.025000    6.0810614933338D-04  1.133D-04
   10.050000    5.9913199320860D-04  1.117D-04
   10.075000    5.9031141467496D-04  1.100D-04
   10.100000    5.8164143345745D-04  1.084D-04
   10.125000    5.7311913368098D-04  1.068D-04
   10.150000    5.6474166234503D-04  1.052D-04
   10.175000    5.5650622783727D-04  1.037D-04
   10.200000    5.4841009848522D-04  1.022D-04
   10.225000    5.4045060114472D-04  1.007D-04
   10.250000    5.3262511982448D-04  9.926D-05
   10.275000    5.2493109434546D-04  9.782D-05
   10.300000    5.1736601903431D-04  9.641D-05
   10.325000    5.0992744144992D-04  9.503D-05
   10.350000    5.0261296114211D-04  9.366D-05
   10.375000    4.9542022844169D-04  9.232D-05
   10.400000    4.8834694328099D-04  9.101D-05
   10.425000    4.8139085404402D-04  8.971D-05
   10.450000    4.7454975644557D-04  8.843D-05
   10.475000    4.6782149243832D-04  8.718D-05
   10.500000    4.6120394914735D-04  8.595D-05
   10.525000    4.5469505783120D-04  8.473D-05
   10.550000    4.4829279286892D-04  8.354D-05
   10.575000    4.4199517077221D-04  8.237D-05
   10.600000    4.3580024922219D-04  8.121D-05
   10.625000    4.2970612613001D-04  8.008D-05
   10.650000    4.2371093872071D-04  7.896D-05
   10.675000    4.1781286263973D-04  7.786D-05
   10.700000    4.1201011108147D-04  7.678D-05
   10.725000    4.0630093393925D-04  7.572D-05
   10.750000    4.0068361697617D-04  7.467D-05
   10.775000    3.9515648101640D-04  7.364D-05
   10.800000    3.8971788115611D-04  7.263D-05
   10.825000    3.8436620599380D-04  7.163D-05
   10.850000    3.7909987687941D-04  7.065D-05
   10.875000    3.7391734718163D-04  6.968D-05
   10.900000    3.6881710157307D-04  6.873D-05
   10.925000    3.6379765533280D-04  6.780D-05
   10.950000    3.5885755366571D-04  6.688D-05
   10.975000    3.5399537103841D-04  6.597D-05
   11.000000    3.4920971053106D-04  6.508D-05
   11.025000    3.4449920320487D-04  6.420D-05
   11.050000    3.3986250748479D-04  6.334D-05
   11.075000    3.3529830855704D-04  6.248D-05
   11.100000    3.3080531778099D-04  6.165D-05
   11.125000    3.2638227211518D-04  6.082D-05
   11.150000    3.2202793355703D-04  6.001D-05
   11.175000    3.1774108859583D-04  5.921D-05
   11.200000    3.1352054767880D-04  5.843D-05
   11.225000    3.0936514468981D-04  5.765D-05
   11.250000    3.0527373644041D-04  5.689D-05
   11.275000    3.0124520217296D-04  5.614D-05
   11.300000    2.9727844307540D-04  5.540D-05
   11.325000    2.9337238180753D-04  5.467D-05
   11.350000    2.8952596203836D-04  5.395D-05
   11.375000    2.8573814799438D-04  5.325D-05
   11.400000    2.8200792401839D-04  5.255D-05
   11.425000    2.7833429413859D-04  5.187D-05
   11.450000    2.7471628164782D-04  5.119D-05
   11.475000    2.7115292869253D-04  5.053D-05
   11.500000    2.6764329587135D-04  4.988D-05
   11.525000    2.6418646184293D-04  4.923D-05
   11.550000    2.6078152294292D-04  4.860D-05
   11.575000    2.5742759280977D-04  4.797D-05
   11.600000    2.5412380201915D-04  4.736D-05
   11.625000    2.5086929772686D-04  4.675D-05
   11.650000    2.4766324331986D-04  4.615D-05
   11.675000    2.4450481807541D-04  4.556D-05
   11.700000    2.4139321682791D-04  4.498D-05
   11.725000    2.3832764964343D-04  4.441D-05
   11.750000    2.3530734150166D-04  4.385D-05
   11.775000    2.3233153198510D-04  4.330D-05
   11.800000    2.2939947497528D-04  4.275D-05
   11.825000    2.2651043835596D-04  4.221D-05
   11.850000    2.2366370372294D-04  4.168D-05
   11.875000    2.2085856610052D-04  4.116D-05
   11.900000    2.1809433366436D-04  4.064D-05
   11.925000    2.1537032747051D-04  4.014D-05
   11.950000    2.1268588119061D-04  3.964D-05
   11.975000    2.1004034085301D-04  3.914D-05
   12.000000    2.0743306458961D-04  3.866D-05
   12.025000    2.0486342238856D-04  3.818D-05
   12.050000    2.0233079585224D-04  3.771D-05
   12.075000    1.9983457796079D-04  3.724D-05
   12.100000    1.9737417284088D-04  3.678D-05
   12.125000    1.9494899553954D-04  3.633D-05
   12.150000    1.9255847180308D-04  3.588D-05
   12.175000    1.9020203786087D-04  3.545D-05
   12.200000    1.8787914021386D-04  3.501D-05
   12.225000    1.8558923542784D-04  3.459D-05
   12.250000    1.8333178993115D-04  3.416D-05
   12.275000    1.8110627981693D-04  3.375D-05
   12.300000    1.7891219064960D-04  3.334D-05
   12.325000    1.7674901727566D-04  3.294D-05
   12.350000    1.7461626363859D-04  3.254D-05
   12.375000    1.7251344259776D-04  3.215D-05
   12.400000    1.7044007575132D-04  3.176D-05
   12.425000    1.6839569326290D-04  3.138D-05
   12.450000    1.6637983369209D-04  3.101D-05
   12.475000    1.6439204382859D-04  3.064D-05
   12.500000    1.6243187852992D-04  3.027D-05
   12.525000    1.6049890056263D-04  2.991D-05
   12.550000    1.5859268044696D-04  2.955D-05
   12.575000    1.5671279630481D-04  2.920D-05
   12.600000    1.5485883371093D-04  2.886D-05
   12.625000    1.5303038554741D-04  2.852D-05
   12.650000    1.5122705186115D-04  2.818D-05
   12.675000    1.4944843972443D-04  2.785D-05
   12.700000    1.4769416309845D-04  2.752D-05
   12.725000    1.4596384269977D-04  2.720D-05
   12.750000    1.4425710586958D-04  2.688D-05
   12.775000    1.4257358644567D-04  2.657D-05
   12.800000    1.4091292463726D-04  2.626D-05
   12.825000    1.3927476690229D-04  2.595D-05
   12.850000    1.3765876582742D-04  2.565D-05
   12.875000    1.3606458001051D-04  2.536D-05
   12.900000    1.3449187394556D-04  2.506D-05
   12.925000    1.3294031791009D-04  2.477D-05
   12.950000    1.3140958785479D-04  2.449D-05
   12.975000    1.2989936529560D-04  2.421D-05
   13.000000    1.2840933720793D-04  2.393D-05
   13.025000    1.2693919592314D-04  2.366D-05
   13.050000    1.2548863902712D-04  2.339D-05
   13.075000    1.2405736926106D-04  2.312D-05
   13.100000    1.2264509442411D-04  2.286D-05
   13.125000    1.2125152727828D-04  2.260D-05
   13.150000    1.1987638545506D-04  2.234D-05
   13.175000    1.1851939136412D-04  2.209D-05
   13.200000    1.1718027210385D-04  2.184D-05
   13.225000    1.1585875937368D-04  2.159D-05
   13.250000    1.1455458938829D-04  2.135D-05
   13.275000    1.1326750279343D-04  2.111D-05
   13.300000    1.1199724458365D-04  2.087D-05
   13.325000    1.1074356402152D-04  2.064D-05
   13.350000    1.0950621455858D-04  2.041D-05
   13.375000    1.0828495375792D-04  2.018D-05
   13.400000    1.0707954321824D-04  1.995D-05
   13.425000    1.0588974849954D-04  1.973D-05
   13.450000    1.0471533905024D-04  1.951D-05
   13.475000    1.0355608813576D-04  1.930D-05
   13.500000    1.0241177276866D-04  1.908D-05
   13.525000    1.0128217363996D-04  1.887D-05
   13.550000    1.0016707505208D-04  1.867D-05
   13.575000    9.9066264852970D-05  1.846D-05
   13.600000    9.7979534371552D-05  1.826D-05
   13.625000    9.6906678354529D-05  1.806D-05
   13.650000    9.5847494904404D-05  1.786D-05
   13.675000    9.4801785418733D-05  1.767D-05
   13.700000    9.3769354530591D-05  1.747D-05
   13.725000    9.2750010050201D-05  1.728D-05
   13.750000    9.1743562907727D-05  1.710D-05
   13.775000    9.0749827097216D-05  1.691D-05
   13.800000    8.9768619621590D-05  1.673D-05
   13.825000    8.8799760438784D-05  1.655D-05
   13.850000    8.7843072408880D-05  1.637D-05
   13.875000    8.6898381242327D-05  1.619D-05
   13.900000    8.5965515449156D-05  1.602D-05
   13.925000    8.5044306289150D-05  1.585D-05
   13.950000    8.4134587723056D-05  1.568D-05
   13.975000    8.3236196364690D-05  1.551D-05
   14.000000    8.2348971433993D-05  1.535D-05
   14.025000    8.1472754710981D-05  1.518D-05
   14.050000    8.0607390490633D-05  1.502D-05
   14.075000    7.9752725538579D-05  1.486D-05
   14.100000    7.8908609047723D-05  1.471D-05
   14.125000    7.8074892595604D-05  1.455D-05
   14.150000    7.7251430102700D-05  1.440D-05
   14.175000    7.6438077791404D-05  1.424D-05
   14.200000    7.5634694145889D-05  1.409D-05
   14.225000    7.4841139872675D-05  1.395D-05
   14.250000    7.4057277861989D-05  1.380D-05
   14.275000    7.3282973149836D-05  1.366D-05
   14.300000    7.2518092880795D-05  1.351D-05
   14.325000    7.1762506271536D-05  1.337D-05
   14.350000    7.1016084575037D-05  1.323D-05
   14.375000    7.0278701045425D-05  1.310D-05
   14.400000    6.9550230903566D-05  1.296D-05
   14.425000    6.8830551303204D-05  1.283D-05
   14.450000    6.8119541297854D-05  1.269D-05
   14.475000    6.7417081808198D-05  1.256D-05
   14.500000    6.6723055590198D-05  1.243D-05
   14.525000    6.6037347203713D-05  1.231D-05
   14.550000    6.5359842981807D-05  1.218D-05
   14.575000    6.4690431000518D-05  1.206D-05
   14.600000    6.4029001049288D-05  1.193D-05
   14.625000    6.3375444601881D-05  1.181D-05
   14.650000    6.2729654787877D-05  1.169D-05
   14.675000    6.2091526364661D-05  1.157D-05
   14.700000    6.1460955689978D-05  1.145D-05
   14.725000    6.0837840694948D-05  1.134D-05
   14.750000    6.0222080857623D-05  1.122D-05
   14.775000    5.9613577176995D-05  1.111D-05
   14.800000    5.9012232147479D-05  1.100D-05
   14.825000    5.8417949733939D-05  1.089D-05
   14.850000    5.7830635347056D-05  1.078D-05
   14.875000    5.7250195819244D-05  1.067D-05
   14.900000    5.6676539380966D-05  1.056D-05
   14.925000    5.6109575637481D-05  1.046D-05
   14.950000    5.5549215546025D-05  1.035D-05
   14.975000    5.4995371393393D-05  1.025D-05
   15.000000    5.4447956773964D-05  1.015D-05
   15.025000    5.3906886568073D-05  1.005D-05
   15.050000    5.3372076920823D-05  9.946D-06
   15.075000    5.2843445221249D-05  9.848D-06
   15.100000    5.2320910081859D-05  9.750D-06
   15.125000    5.1804391318581D-05  9.654D-06
   15.150000    5.1293809931016D-05  9.559D-06
   15.175000    5.0789088083083D-05  9.465D-06
   15.200000    5.0290149083999D-05  9.372D-06
   15.225000    4.9796917369622D-05  9.280D-06
   15.250000    4.9309318484071D-05  9.189D-06
   15.275000    4.8827279061751D-05  9.099D-06
   15.300000    4.8350726809610D-05  9.010D-06
   15.325000    4.7879590489826D-05  8.923D-06
   15.350000    4.7413799902664D-05  8.836D-06
   15.375000    4.6953285869780D-05  8.750D-06
   15.400000    4.6497980217681D-05  8.665D-06
   15.425000    4.6047815761604D-05  8.581D-06
   15.450000    4.5602726289595D-05  8.498D-06
   15.475000    4.5162646546896D-05  8.416D-06
   15.500000    4.4727512220613D-05  8.335D-06
   15.525000    4.4297259924644D-05  8.255D-06
   15.550000    4.3871827184879D-05  8.176D-06
   15.575000    4.3451152424668D-05  8.097D-06
   15.600000    4.3035174950495D-05  8.020D-06
   15.625000    4.2623834937970D-05  7.943D-06
   15.650000    4.2217073418019D-05  7.867D-06
   15.675000    4.1814832263337D-05  7.792D-06
   15.700000    4.1417054175068D-05  7.718D-06
   15.725000    4.1023682669701D-05  7.645D-06
   15.750000    4.0634662066231D-05  7.572D-06
   15.775000    4.0249937473494D-05  7.501D-06
   15.800000    3.9869454777787D-05  7.430D-06
   15.825000    3.9493160630605D-05  7.360D-06
   15.850000    3.9121002436705D-05  7.290D-06
   15.875000    3.8752928342274D-05  7.222D-06
   15.900000    3.8388887223360D-05  7.154D-06
   15.925000    3.8028828674464D-05  7.087D-06
   15.950000    3.7672702997391D-05  7.021D-06
   15.975000    3.7320461190184D-05  6.955D-06
   16.000000    3.6972054936376D-05  6.890D-06
   16.025000    3.6627436594309D-05  6.826D-06
   16.050000    3.6286559186709D-05  6.762D-06
   16.075000    3.5949376390411D-05  6.699D-06
   16.100000    3.5615842526257D-05  6.637D-06
   16.125000    3.5285912549165D-05  6.576D-06
   16.150000    3.4959542038405D-05  6.515D-06
   16.175000    3.4636687187940D-05  6.455D-06
   16.200000    3.4317304797069D-05  6.395D-06
   16.225000    3.4001352261095D-05  6.336D-06
   16.250000    3.3688787562239D-05  6.278D-06
   16.275000    3.3379569260654D-05  6.220D-06
   16.300000    3.3073656485651D-05  6.163D-06
   16.325000    3.2771008926986D-05  6.107D-06
   16.350000    3.2471586826358D-05  6.051D-06
   16.375000    3.2175350969029D-05  5.996D-06
   16.400000    3.1882262675608D-05  5.941D-06
   16.425000    3.1592283793898D-05  5.887D-06
   16.450000    3.1305376690966D-05  5.834D-06
   16.475000    3.1021504245300D-05  5.781D-06
   16.500000    3.0740629839088D-05  5.729D-06
   16.525000    3.0462717350674D-05  5.677D-06
   16.550000    3.0187731147052D-05  5.626D-06
   16.575000    2.9915636076582D-05  5.575D-06
   16.600000    2.9646397461767D-05  5.525D-06
   16.625000    2.9379981092142D-05  5.475D-06
   16.650000    2.9116353217322D-05  5.426D-06
   16.675000    2.8855480540132D-05  5.377D-06
   16.700000    2.8597330209860D-05  5.329D-06
   16.725000    2.8341869815624D-05  5.282D-06
   16.750000    2.8089067379828D-05  5.235D-06
   16.775000    2.7838891351756D-05  5.188D-06
   16.800000    2.7591310601235D-05  5.142D-06
   16.825000    2.7346294412439D-05  5.096D-06
   16.850000    2.7103812477758D-05  5.051D-06
   16.875000    2.6863834891783D-05  5.006D-06
   16.900000    2.6626332145400D-05  4.962D-06
   16.925000    2.6391275119948D-05  4.918D-06
   16.950000    2.6158635081508D-05  4.875D-06
   16.975000    2.5928383675251D-05  4.832D-06
   17.000000    2.5700492919904D-05  4.789D-06
   17.025000    2.5474935202270D-05  4.747D-06
   17.050000    2.5251683271896D-05  4.706D-06
   17.075000    2.5030710235758D-05  4.665D-06
   17.100000    2.4811989553065D-05  4.624D-06
   17.125000    2.4595495030152D-05  4.584D-06
   17.150000    2.4381200815449D-05  4.544D-06
   17.175000    2.4169081394508D-05  4.504D-06
   17.200000    2.3959111585144D-05  4.465D-06
   17.225000    2.3751266532635D-05  4.426D-06
   17.250000    2.3545521704987D-05  4.388D-06
   17.275000    2.3341852888302D-05  4.350D-06
   17.300000    2.3140236182195D-05  4.312D-06
   17.325000    2.2940647995290D-05  4.275D-06
   17.350000    2.2743065040788D-05  4.238D-06
   17.375000    2.2547464332125D-05  4.202D-06
   17.400000    2.2353823178660D-05  4.166D-06
   17.425000    2.2162119181449D-05  4.130D-06
   17.450000    2.1972330229089D-05  4.095D-06
   17.475000    2.1784434493642D-05  4.060D-06
   17.500000    2.1598410426580D-05  4.025D-06
   17.525000    2.1414236754815D-05  3.991D-06
   17.550000    2.1231892476837D-05  3.957D-06
   17.575000    2.1051356858805D-05  3.923D-06
   17.600000    2.0872609430826D-05  3.890D-06
   17.625000    2.0695629983170D-05  3.857D-06
   17.650000    2.0520398562659D-05  3.824D-06
   17.675000    2.0346895469015D-05  3.792D-06
   17.700000    2.0175101251311D-05  3.760D-06
   17.725000    2.0004996704485D-05  3.728D-06
   17.750000    1.9836562865891D-05  3.697D-06
   17.775000    1.9669781011877D-05  3.666D-06
   17.800000    1.9504632654490D-05  3.635D-06
   17.825000    1.9341099538138D-05  3.604D-06
   17.850000    1.9179163636405D-05  3.574D-06
   17.875000    1.9018807148786D-05  3.544D-06
   17.900000    1.8860012497628D-05  3.515D-06
   17.925000    1.8702762324980D-05  3.485D-06
   17.950000    1.8547039489556D-05  3.456D-06
   17.975000    1.8392827063775D-05  3.428D-06
   18.000000    1.8240108330726D-05  3.399D-06
   18.025000    1.8088866781334D-05  3.371D-06
   18.050000    1.7939086111469D-05  3.343D-06
   18.075000    1.7790750219126D-05  3.315D-06