
variables = "r", "V(r) ", "Uncertainty"
zone T = "State 1 V(r)   77N9p6q3Rf3_6R      "
    0.000000    3.5985144050559D+05     0.0
    0.025000    1.4375402075984D+08     0.0
    0.050000    3.6176077786779D+07     0.0
    0.075000    1.6174715754561D+07     0.0
    0.100000    9.1473265846385D+06     0.0
    0.125000    5.8823012568531D+06     0.0
    0.150000    4.1020080188111D+06     0.0
    0.175000    3.0244997342495D+06     0.0
    0.200000    2.3225184267505D+06     0.0
    0.225000    1.8394257239545D+06     0.0
    0.250000    1.4925658462016D+06     0.0
    0.275000    1.2349564892515D+06     0.0
    0.300000    1.0382795700148D+06     0.0
    0.325000    8.8463637313667D+05     0.0
    0.350000    7.6226055207987D+05     0.0
    0.375000    6.6315715971623D+05     0.0
    0.400000    5.8173843322625D+05     0.0
    0.425000    5.1400273630908D+05     0.0
    0.450000    4.5702278058986D+05     0.0
    0.475000    4.0861675811809D+05     0.0
    0.500000    3.6713128488708D+05     0.0
    0.525000    3.3129471018483D+05     0.0
    0.550000    3.0011586668689D+05     0.0
    0.575000    2.7281284952124D+05     0.0
    0.600000    2.4876205514695D+05     0.0
    0.625000    2.2746114750929D+05     0.0
    0.650000    2.0850176261132D+05     0.0
    0.675000    1.9154912910249D+05     0.0
    0.700000    1.7632667088356D+05     0.0
    0.725000    1.6260424584597D+05     0.0
    0.750000    1.5018907071208D+05     0.0
    0.775000    1.3891865248737D+05     0.0
    0.800000    1.2865523457555D+05     0.0
    0.825000    1.1928139732834D+05     0.0
    0.850000    1.1069654645312D+05     0.0
    0.875000    1.0281409005072D+05     0.0
    0.900000    9.5559154007487D+04     0.0
    0.925000    8.8866721402826D+04     0.0
    0.950000    8.2680108224983D+04     0.0
    0.975000    7.6949707597564D+04     0.0
    1.000000    7.1631949728813D+04     0.0
    1.025000    6.6688436199604D+04     0.0
    1.050000    6.2085215935572D+04     0.0
    1.075000    5.7792176937993D+04     0.0
    1.100000    5.3782533070077D+04     0.0
    1.125000    5.0032389273549D+04     0.0
    1.150000    4.6520371794615D+04     0.0
    1.175000    4.3227312530336D+04     0.0
    1.200000    4.0135978618276D+04     0.0
    1.225000    3.7230839999040D+04     0.0
    1.250000    3.4497868971181D+04     0.0
    1.275000    3.1924366798203D+04     0.0
    1.300000    2.9498813270303D+04     0.0
    1.325000    2.7210735809446D+04     0.0
    1.350000    2.5050595266920D+04     0.0
    1.375000    2.3009686022527D+04     0.0
    1.400000    2.1080048373446D+04     0.0
    1.425000    1.9254391514083D+04     0.0
    1.450000    1.7526025668156D+04     0.0
    1.475000    1.5888802150722D+04     0.0
    1.500000    1.4337060318673D+04     0.0
    1.525000    1.2865580519769D+04     0.0
    1.550000    1.1469542277699D+04     0.0
    1.575000    1.0144487058096D+04     0.0
    1.600000    8.8862850512782D+03     0.0
    1.625000    7.6911054845698D+03     0.0
    1.650000    6.5553900425358D+03     0.0
    1.675000    5.4758290293674D+03     0.0
    1.700000    4.4493399553733D+03     0.0
    1.725000    3.4730482704575D+03     0.0
    1.750000    2.5442700026003D+03     0.0
    1.775000    1.6604960896102D+03     0.0
    1.800000    8.1937821851094D+02     0.0
    1.825000    1.8716009503378D+01     0.0
    1.850000   -7.4355459900976D+02     0.0
    1.875000   -1.4693718908623D+03     0.0
    1.900000   -2.1605579497809D+03     0.0
    1.925000   -2.8188273731361D+03     0.0
    1.950000   -3.4457952094138D+03     0.0
    1.975000   -4.0429841971965D+03     0.0
    2.000000   -4.6118313748115D+03     0.0
    2.025000   -5.1536941222326D+03     0.0
    2.050000   -5.6698556901568D+03     0.0
    2.075000   -6.1615302653076D+03     0.0
    2.100000   -6.6298676158379D+03     0.0
    2.125000   -7.0759573561258D+03     0.0
    2.150000   -7.5008328662037D+03     0.0
    2.175000   -7.9054748974692D+03     0.0
    2.200000   -8.2908148931356D+03  3.441D+00
    2.225000   -8.6577380490402D+03  3.230D+00
    2.250000   -9.0070861379153D+03  3.030D+00
    2.275000   -9.3396601179538D+03  2.840D+00
    2.300000   -9.6562225445127D+03  2.661D+00
    2.325000   -9.9574998019878D+03  2.491D+00
    2.350000   -1.0244184171287D+04  2.331D+00
    2.375000   -1.0516935746888D+04  2.179D+00
    2.400000   -1.0776384216174D+04  2.036D+00
    2.425000   -1.1023130512572D+04  1.901D+00
    2.450000   -1.1257748352980D+04  1.773D+00
    2.475000   -1.1480785669019D+04  1.653D+00
    2.500000   -1.1692765940799D+04  1.539D+00
    2.525000   -1.1894189441130D+04  1.432D+00
    2.550000   -1.2085534397387D+04  1.332D+00
    2.575000   -1.2267258077650D+04  1.237D+00
    2.600000   -1.2439797807138D+04  1.149D+00
    2.625000   -1.2603571920444D+04  1.065D+00
    2.650000   -1.2758980654639D+04  9.869D-01
    2.675000   -1.2906406987833D+04  9.135D-01
    2.700000   -1.3046217427454D+04  8.447D-01
    2.725000   -1.3178762752091D+04  7.803D-01
    2.750000   -1.3304378710480D+04  7.201D-01
    2.775000   -1.3423386680874D+04  6.638D-01
    2.800000   -1.3536094293794D+04  6.112D-01
    2.825000   -1.3642796020896D+04  5.621D-01
    2.850000   -1.3743773732473D+04  5.164D-01
    2.875000   -1.3839297225907D+04  4.738D-01
    2.900000   -1.3929624727169D+04  4.342D-01
    2.925000   -1.4015003367333D+04  3.974D-01
    2.950000   -1.4095669635871D+04  3.633D-01
    2.975000   -1.4171849812365D+04  3.316D-01
    3.000000   -1.4243760378142D+04  3.023D-01
    3.025000   -1.4311608409201D+04  2.751D-01
    3.050000   -1.4375591951688D+04  2.500D-01
    3.075000   -1.4435900381072D+04  2.269D-01
    3.100000   -1.4492714746090D+04  2.056D-01
    3.125000   -1.4546208098396D+04  1.859D-01
    3.150000   -1.4596545808839D+04  1.679D-01
    3.175000   -1.4643885871129D+04  1.513D-01
    3.200000   -1.4688379193674D+04  1.361D-01
    3.225000   -1.4730169880223D+04  1.222D-01
    3.250000   -1.4769395499949D+04  1.095D-01
    3.275000   -1.4806187347537D+04  9.791D-02
    3.300000   -1.4840670693762D+04  8.735D-02
    3.325000   -1.4872965027056D+04  7.775D-02
    3.350000   -1.4903184286463D+04  6.904D-02
    3.375000   -1.4931437086385D+04  6.114D-02
    3.400000   -1.4957826933471D+04  5.401D-02
    3.425000   -1.4982452435962D+04  4.757D-02
    3.450000   -1.5005407505810D+04  4.177D-02
    3.475000   -1.5026781553817D+04  3.657D-02
    3.500000   -1.5046659678068D+04  3.190D-02
    3.525000   -1.5065122845869D+04  2.774D-02
    3.550000   -1.5082248069417D+04  2.402D-02
    3.575000   -1.5098108575386D+04  2.072D-02
    3.600000   -1.5112773968621D+04  1.779D-02
    3.625000   -1.5126310390116D+04  1.521D-02
    3.650000   -1.5138780669417D+04  1.294D-02
    3.675000   -1.5150244471628D+04  1.094D-02
    3.700000   -1.5160758439143D+04  9.200D-03
    3.725000   -1.5170376328257D+04  7.685D-03
    3.750000   -1.5179149140778D+04  6.373D-03
    3.775000   -1.5187125250768D+04  5.243D-03
    3.800000   -1.5194350526546D+04  4.276D-03
    3.825000   -1.5200868448065D+04  3.452D-03
    3.850000   -1.5206720219774D+04  2.755D-03
    3.875000   -1.5211944879100D+04  2.171D-03
    3.900000   -1.5216579400644D+04  1.685D-03
    3.925000   -1.5220658796216D+04  1.284D-03
    3.950000   -1.5224216210809D+04  9.583D-04
    3.975000   -1.5227283014635D+04  6.963D-04
    4.000000   -1.5229888891320D+04  4.893D-04
    4.025000   -1.5232061922373D+04  3.291D-04
    4.050000   -1.5233828668038D+04  2.084D-04
    4.075000   -1.5235214244629D+04  1.209D-04
    4.100000   -1.5236242398469D+04  6.076D-05
    4.125000   -1.5236935576517D+04  2.328D-05
    4.150000   -1.5237314993808D+04  4.280D-06
    4.175000   -1.5237400697810D+04  2.426D-07
    4.200000   -1.5237211629781D+04  8.281D-06
    4.225000   -1.5236765683253D+04  2.607D-05
    4.250000   -1.5236079759735D+04  5.179D-05
    4.275000   -1.5235169821730D+04  8.412D-05
    4.300000   -1.5234050943176D+04  1.221D-04
    4.325000   -1.5232737357396D+04  1.651D-04
    4.350000   -1.5231242502670D+04  2.129D-04
    4.375000   -1.5229579065506D+04  2.653D-04
    4.400000   -1.5227759021713D+04  3.224D-04
    4.425000   -1.5225793675366D+04  3.843D-04
    4.450000   -1.5223693695751D+04  4.512D-04
    4.475000   -1.5221469152373D+04  5.231D-04
    4.500000   -1.5219129548117D+04  6.002D-04
    4.525000   -1.5216683850644D+04  6.824D-04
    4.550000   -1.5214140522101D+04  7.698D-04
    4.575000   -1.5211507547220D+04  8.622D-04
    4.600000   -1.5208792459887D+04  9.595D-04
    4.625000   -1.5206002368255D+04  1.061D-03
    4.650000   -1.5203143978461D+04  1.167D-03
    4.675000   -1.5200223617033D+04  1.277D-03
    4.700000   -1.5197247252036D+04  1.390D-03
    4.725000   -1.5194220513031D+04  1.506D-03
    4.750000   -1.5191148709907D+04  1.624D-03
    4.775000   -1.5188036850640D+04  1.744D-03
    4.800000   -1.5184889658043D+04  1.866D-03
    4.825000   -1.5181711585551D+04  1.989D-03
    4.850000   -1.5178506832105D+04  2.112D-03
    4.875000   -1.5175279356173D+04  2.235D-03
    4.900000   -1.5172032888967D+04  2.357D-03
    4.925000   -1.5168770946891D+04  2.479D-03
    4.950000   -1.5165496843264D+04  2.599D-03
    4.975000   -1.5162213699374D+04  2.717D-03
    5.000000   -1.5158924454876D+04  2.833D-03
    5.025000   -1.5155631877595D+04  2.946D-03
    5.050000   -1.5152338572761D+04  3.057D-03
    5.075000   -1.5149046991700D+04  3.164D-03
    5.100000   -1.5145759440028D+04  3.268D-03
    5.125000   -1.5142478085369D+04  3.369D-03
    5.150000   -1.5139204964631D+04  3.465D-03
    5.175000   -1.5135941990856D+04  3.558D-03
    5.200000   -1.5132690959685D+04  3.646D-03
    5.225000   -1.5129453555445D+04  3.730D-03
    5.250000   -1.5126231356902D+04  3.809D-03
    5.275000   -1.5123025842676D+04  3.884D-03
    5.300000   -1.5119838396356D+04  3.954D-03
    5.325000   -1.5116670311331D+04  4.020D-03
    5.350000   -1.5113522795350D+04  4.081D-03
    5.375000   -1.5110396974825D+04  4.138D-03
    5.400000   -1.5107293898910D+04  4.190D-03
    5.425000   -1.5104214543343D+04  4.237D-03
    5.450000   -1.5101159814093D+04  4.280D-03
    5.475000   -1.5098130550805D+04  4.318D-03
    5.500000   -1.5095127530063D+04  4.352D-03
    5.525000   -1.5092151468481D+04  4.382D-03
    5.550000   -1.5089203025637D+04  4.407D-03
    5.575000   -1.5086282806851D+04  4.429D-03
    5.600000   -1.5083391365819D+04  4.446D-03
    5.625000   -1.5080529207125D+04  4.460D-03
    5.650000   -1.5077696788614D+04  4.470D-03
    5.675000   -1.5074894523654D+04  4.476D-03
    5.700000   -1.5072122783290D+04  4.479D-03
    5.725000   -1.5069381898288D+04  4.478D-03
    5.750000   -1.5066672161085D+04  4.475D-03
    5.775000   -1.5063993827647D+04  4.468D-03
    5.800000   -1.5061347119236D+04  4.458D-03
    5.825000   -1.5058732224100D+04  4.446D-03
    5.850000   -1.5056149299083D+04  4.431D-03
    5.875000   -1.5053598471164D+04  4.413D-03
    5.900000   -1.5051079838925D+04  4.393D-03
    5.925000   -1.5048593473957D+04  4.371D-03
    5.950000   -1.5046139422198D+04  4.347D-03
    5.975000   -1.5043717705223D+04  4.320D-03
    6.000000   -1.5041328321468D+04  4.292D-03
    6.025000   -1.5038971247412D+04  4.262D-03
    6.050000   -1.5036646438697D+04  4.231D-03
    6.075000   -1.5034353831214D+04  4.198D-03
    6.100000   -1.5032093342135D+04  4.164D-03
    6.125000   -1.5029864870906D+04  4.129D-03
    6.150000   -1.5027668300197D+04  4.093D-03
    6.175000   -1.5025503496818D+04  4.055D-03
    6.200000   -1.5023370312591D+04  4.017D-03
    6.225000   -1.5021268585194D+04  3.978D-03
    6.250000   -1.5019198138965D+04  3.939D-03
    6.275000   -1.5017158785678D+04  3.899D-03
    6.300000   -1.5015150325287D+04  3.859D-03
    6.325000   -1.5013172546640D+04  3.818D-03
    6.350000   -1.5011225228162D+04  3.777D-03
    6.375000   -1.5009308138520D+04  3.737D-03
    6.400000   -1.5007421037247D+04  3.696D-03
    6.425000   -1.5005563675358D+04  3.655D-03
    6.450000   -1.5003735795926D+04  3.615D-03
    6.475000   -1.5001937134647D+04  3.575D-03
    6.500000   -1.5000167420377D+04  3.536D-03
    6.525000   -1.4998426375646D+04  3.497D-03
    6.550000   -1.4996713717157D+04  3.459D-03
    6.575000   -1.4995029156257D+04  3.422D-03
    6.600000   -1.4993372399401D+04  3.385D-03
    6.625000   -1.4991743148582D+04  3.350D-03
    6.650000   -1.4990141101756D+04  3.315D-03
    6.675000   -1.4988565953243D+04  3.282D-03
    6.700000   -1.4987017394114D+04  3.249D-03
    6.725000   -1.4985495112560D+04  3.218D-03
    6.750000   -1.4983998794246D+04  3.188D-03
    6.775000   -1.4982528122652D+04  3.160D-03
    6.800000   -1.4981082779397D+04  3.133D-03
    6.825000   -1.4979662444547D+04  3.107D-03
    6.850000   -1.4978266796917D+04  3.083D-03
    6.875000   -1.4976895514352D+04  3.061D-03
    6.900000   -1.4975548273997D+04  3.040D-03
    6.925000   -1.4974224752558D+04  3.020D-03
    6.950000   -1.4972924626549D+04  3.002D-03
    6.975000   -1.4971647572525D+04  2.986D-03
    7.000000   -1.4970393267309D+04  2.971D-03
    7.025000   -1.4969161388203D+04  2.958D-03
    7.050000   -1.4967951613195D+04  2.947D-03
    7.075000   -1.4966763621146D+04  2.937D-03
    7.100000   -1.4965597091977D+04  2.928D-03
    7.125000   -1.4964451706846D+04  2.921D-03
    7.150000   -1.4963327148304D+04  2.915D-03
    7.175000   -1.4962223100459D+04  2.910D-03
    7.200000   -1.4961139249118D+04  2.907D-03
    7.225000   -1.4960075281931D+04  2.905D-03
    7.250000   -1.4959030888518D+04  2.904D-03
    7.275000   -1.4958005760593D+04  2.904D-03
    7.300000   -1.4956999592084D+04  2.905D-03
    7.325000   -1.4956012079236D+04  2.908D-03
    7.350000   -1.4955042920720D+04  2.911D-03
    7.375000   -1.4954091817722D+04  2.914D-03
    7.400000   -1.4953158474036D+04  2.919D-03
    7.425000   -1.4952242596144D+04  2.924D-03
    7.450000   -1.4951343893299D+04  2.930D-03
    7.475000   -1.4950462077586D+04  2.936D-03
    7.500000   -1.4949596863998D+04  2.942D-03
    7.525000   -1.4948747970490D+04  2.949D-03
    7.550000   -1.4947915118037D+04  2.956D-03
    7.575000   -1.4947098030682D+04  2.964D-03
    7.600000   -1.4946296435584D+04  2.971D-03
    7.625000   -1.4945510063060D+04  2.979D-03
    7.650000   -1.4944738646616D+04  2.986D-03
    7.675000   -1.4943981922986D+04  2.994D-03
    7.700000   -1.4943239632158D+04  3.001D-03
    7.725000   -1.4942511517399D+04  3.008D-03
    7.750000   -1.4941797325274D+04  3.015D-03
    7.775000   -1.4941096805668D+04  3.022D-03
    7.800000   -1.4940409711796D+04  3.028D-03
    7.825000   -1.4939735800216D+04  3.034D-03
    7.850000   -1.4939074830835D+04  3.040D-03
    7.875000   -1.4938426566919D+04  3.045D-03
    7.900000   -1.4937790775088D+04  3.050D-03
    7.925000   -1.4937167225321D+04  3.054D-03
    7.950000   -1.4936555690951D+04  3.058D-03
    7.975000   -1.4935955948660D+04  3.061D-03
    8.000000   -1.4935367778470D+04  3.064D-03
    8.025000   -1.4934790963735D+04  3.066D-03
    8.050000   -1.4934225291129D+04  3.068D-03
    8.075000   -1.4933670550631D+04  3.068D-03
    8.100000   -1.4933126535509D+04  3.069D-03
    8.125000   -1.4932593042305D+04  3.068D-03
    8.150000   -1.4932069870812D+04  3.067D-03
    8.175000   -1.4931556824058D+04  3.066D-03
    8.200000   -1.4931053708281D+04  3.064D-03
    8.225000   -1.4930560332906D+04  3.061D-03
    8.250000   -1.4930076510520D+04  3.057D-03
    8.275000   -1.4929602056848D+04  3.053D-03
    8.300000   -1.4929136790723D+04  3.048D-03
    8.325000   -1.4928680534062D+04  3.042D-03
    8.350000   -1.4928233111832D+04  3.036D-03
    8.375000   -1.4927794352026D+04  3.029D-03
    8.400000   -1.4927364085625D+04  3.022D-03
    8.425000   -1.4926942146576D+04  3.014D-03
    8.450000   -1.4926528371749D+04  3.005D-03
    8.475000   -1.4926122600915D+04  2.996D-03
    8.500000   -1.4925724676704D+04  2.986D-03
    8.525000   -1.4925334444576D+04  2.975D-03
    8.550000   -1.4924951752786D+04  2.964D-03
    8.575000   -1.4924576452348D+04  2.952D-03
    8.600000   -1.4924208397001D+04  2.940D-03
    8.625000   -1.4923847443173D+04  2.927D-03
    8.650000   -1.4923493449947D+04  2.914D-03
    8.675000   -1.4923146279023D+04  2.900D-03
    8.700000   -1.4922805794683D+04  2.886D-03
    8.725000   -1.4922471863756D+04  2.871D-03
    8.750000   -1.4922144355578D+04  2.856D-03
    8.775000   -1.4921823141960D+04  2.840D-03
    8.800000   -1.4921508097151D+04  2.824D-03
    8.825000   -1.4921199097799D+04  2.807D-03
    8.850000   -1.4920896022915D+04  2.790D-03
    8.875000   -1.4920598753842D+04  2.773D-03
    8.900000   -1.4920307174210D+04  2.755D-03
    8.925000   -1.4920021169909D+04  2.737D-03
    8.950000   -1.4919740629046D+04  2.718D-03
    8.975000   -1.4919465441914D+04  2.699D-03
    9.000000   -1.4919195500953D+04  2.680D-03
    9.025000   -1.4918930700716D+04  2.660D-03
    9.050000   -1.4918670937836D+04  2.641D-03
    9.075000   -1.4918416110987D+04  2.620D-03
    9.100000   -1.4918166120853D+04  2.600D-03
    9.125000   -1.4917920870090D+04  2.579D-03
    9.150000   -1.4917680263297D+04  2.559D-03
    9.175000   -1.4917444206976D+04  2.538D-03
    9.200000   -1.4917212609504D+04  2.516D-03
    9.225000   -1.4916985381095D+04  2.495D-03
    9.250000   -1.4916762433772D+04  2.473D-03
    9.275000   -1.4916543681332D+04  2.451D-03
    9.300000   -1.4916329039313D+04  2.429D-03
    9.325000   -1.4916118424963D+04  2.407D-03
    9.350000   -1.4915911757211D+04  2.385D-03
    9.375000   -1.4915708956631D+04  2.363D-03
    9.400000   -1.4915509945417D+04  2.340D-03
    9.425000   -1.4915314647348D+04  2.318D-03
    9.450000   -1.4915122987761D+04  2.295D-03
    9.475000   -1.4914934893521D+04  2.273D-03
    9.500000   -1.4914750292991D+04  2.250D-03
    9.525000   -1.4914569116004D+04  2.227D-03
    9.550000   -1.4914391293835D+04  2.204D-03
    9.575000   -1.4914216759174D+04  2.181D-03
    9.600000   -1.4914045446094D+04  2.159D-03
    9.625000   -1.4913877290031D+04  2.136D-03
    9.650000   -1.4913712227752D+04  2.113D-03
    9.675000   -1.4913550197331D+04  2.090D-03
    9.700000   -1.4913391138123D+04  2.067D-03
    9.725000   -1.4913234990737D+04  2.045D-03
    9.750000   -1.4913081697015D+04  2.022D-03
    9.775000   -1.4912931200002D+04  1.999D-03
    9.800000   -1.4912783443927D+04  1.977D-03
    9.825000   -1.4912638374175D+04  1.954D-03
    9.850000   -1.4912495937266D+04  1.931D-03
    9.875000   -1.4912356080832D+04  1.909D-03
    9.900000   -1.4912218753595D+04  1.887D-03
    9.925000   -1.4912083905340D+04  1.864D-03
    9.950000   -1.4911951486900D+04  1.842D-03
    9.975000   -1.4911821450132D+04  1.820D-03
   10.000000   -1.4911693747894D+04  1.798D-03
   10.025000   -1.4911568334026D+04  1.776D-03
   10.050000   -1.4911445163329D+04  1.755D-03
   10.075000   -1.4911324191548D+04  1.733D-03
   10.100000   -1.4911205375348D+04  1.712D-03
   10.125000   -1.4911088672297D+04  1.690D-03
   10.150000   -1.4910974040849D+04  1.669D-03
   10.175000   -1.4910861440321D+04  1.648D-03
   10.200000   -1.4910750830881D+04  1.627D-03
   10.225000   -1.4910642173523D+04  1.606D-03
   10.250000   -1.4910535430057D+04  1.586D-03
   10.275000   -1.4910430563085D+04  1.565D-03
   10.300000   -1.4910327535991D+04  1.545D-03
   10.325000   -1.4910226312918D+04  1.525D-03
   10.350000   -1.4910126858757D+04  1.505D-03
   10.375000   -1.4910029139129D+04  1.485D-03
   10.400000   -1.4909933120370D+04  1.465D-03
   10.425000   -1.4909838769515D+04  1.446D-03
   10.450000   -1.4909746054284D+04  1.427D-03
   10.475000   -1.4909654943067D+04  1.407D-03
   10.500000   -1.4909565404911D+04  1.388D-03
   10.525000   -1.4909477409504D+04  1.370D-03
   10.550000   -1.4909390927163D+04  1.351D-03
   10.575000   -1.4909305928820D+04  1.333D-03
   10.600000   -1.4909222386008D+04  1.314D-03
   10.625000   -1.4909140270849D+04  1.296D-03
   10.650000   -1.4909059556042D+04  1.278D-03
   10.675000   -1.4908980214850D+04  1.261D-03
   10.700000   -1.4908902221088D+04  1.243D-03
   10.725000   -1.4908825549111D+04  1.226D-03
   10.750000   -1.4908750173801D+04  1.208D-03
   10.775000   -1.4908676070561D+04  1.191D-03
   10.800000   -1.4908603215295D+04  1.175D-03
   10.825000   -1.4908531584407D+04  1.158D-03
   10.850000   -1.4908461154784D+04  1.142D-03
   10.875000   -1.4908391903785D+04  1.125D-03
   10.900000   -1.4908323809236D+04  1.109D-03
   10.925000   -1.4908256849416D+04  1.093D-03
   10.950000   -1.4908191003048D+04  1.078D-03
   10.975000   -1.4908126249292D+04  1.062D-03
   11.000000   -1.4908062567729D+04  1.047D-03
   11.025000   -1.4907999938360D+04  1.031D-03
   11.050000   -1.4907938341593D+04  1.016D-03
   11.075000   -1.4907877758233D+04  1.002D-03
   11.100000   -1.4907818169477D+04  9.871D-04
   11.125000   -1.4907759556902D+04  9.726D-04
   11.150000   -1.4907701902460D+04  9.583D-04
   11.175000   -1.4907645188467D+04  9.442D-04
   11.200000   -1.4907589397598D+04  9.303D-04
   11.225000   -1.4907534512877D+04  9.166D-04
   11.250000   -1.4907480517671D+04  9.030D-04
   11.275000   -1.4907427395682D+04  8.896D-04
   11.300000   -1.4907375130941D+04  8.764D-04
   11.325000   -1.4907323707797D+04  8.633D-04
   11.350000   -1.4907273110917D+04  8.504D-04
   11.375000   -1.4907223325273D+04  8.377D-04
   11.400000   -1.4907174336137D+04  8.252D-04
   11.425000   -1.4907126129078D+04  8.128D-04
   11.450000   -1.4907078689951D+04  8.005D-04
   11.475000   -1.4907032004893D+04  7.885D-04
   11.500000   -1.4906986060319D+04  7.766D-04
   11.525000   -1.4906940842913D+04  7.649D-04
   11.550000   -1.4906896339620D+04  7.533D-04
   11.575000   -1.4906852537650D+04  7.419D-04
   11.600000   -1.4906809424460D+04  7.306D-04
   11.625000   -1.4906766987759D+04  7.195D-04
   11.650000   -1.4906725215497D+04  7.085D-04
   11.675000   -1.4906684095862D+04  6.977D-04
   11.700000   -1.4906643617272D+04  6.871D-04
   11.725000   -1.4906603768376D+04  6.766D-04
   11.750000   -1.4906564538043D+04  6.662D-04
   11.775000   -1.4906525915362D+04  6.560D-04
   11.800000   -1.4906487889633D+04  6.460D-04
   11.825000   -1.4906450450366D+04  6.360D-04
   11.850000   -1.4906413587276D+04  6.263D-04
   11.875000   -1.4906377290277D+04  6.166D-04
   11.900000   -1.4906341549480D+04  6.071D-04
   11.925000   -1.4906306355188D+04  5.977D-04
   11.950000   -1.4906271697889D+04  5.885D-04
   11.975000   -1.4906237568258D+04  5.794D-04
   12.000000   -1.4906203957150D+04  5.705D-04
   12.025000   -1.4906170855593D+04  5.616D-04
   12.050000   -1.4906138254790D+04  5.529D-04
   12.075000   -1.4906106146114D+04  5.443D-04
   12.100000   -1.4906074521101D+04  5.359D-04
   12.125000   -1.4906043371450D+04  5.276D-04
   12.150000   -1.4906012689018D+04  5.194D-04
   12.175000   -1.4905982465819D+04  5.113D-04
   12.200000   -1.4905952694018D+04  5.033D-04
   12.225000   -1.4905923365928D+04  4.955D-04
   12.250000   -1.4905894474009D+04  4.877D-04
   12.275000   -1.4905866010863D+04  4.801D-04
   12.300000   -1.4905837969234D+04  4.726D-04
   12.325000   -1.4905810342001D+04  4.653D-04
   12.350000   -1.4905783122177D+04  4.580D-04
   12.375000   -1.4905756302908D+04  4.508D-04
   12.400000   -1.4905729877467D+04  4.438D-04
   12.425000   -1.4905703839255D+04  4.368D-04
   12.450000   -1.4905678181794D+04  4.300D-04
   12.475000   -1.4905652898731D+04  4.233D-04
   12.500000   -1.4905627983826D+04  4.166D-04
   12.525000   -1.4905603430960D+04  4.101D-04
   12.550000   -1.4905579234126D+04  4.037D-04
   12.575000   -1.4905555387427D+04  3.973D-04
   12.600000   -1.4905531885078D+04  3.911D-04
   12.625000   -1.4905508721397D+04  3.849D-04
   12.650000   -1.4905485890812D+04  3.789D-04
   12.675000   -1.4905463387849D+04  3.729D-04
   12.700000   -1.4905441207137D+04  3.671D-04
   12.725000   -1.4905419343402D+04  3.613D-04
   12.750000   -1.4905397791469D+04  3.556D-04
   12.775000   -1.4905376546256D+04  3.500D-04
   12.800000   -1.4905355602774D+04  3.445D-04
   12.825000   -1.4905334956124D+04  3.391D-04
   12.850000   -1.4905314601497D+04  3.338D-04
   12.875000   -1.4905294534173D+04  3.285D-04
   12.900000   -1.4905274749513D+04  3.234D-04
   12.925000   -1.4905255242967D+04  3.183D-04
   12.950000   -1.4905236010063D+04  3.133D-04
   12.975000   -1.4905217046413D+04  3.083D-04
   13.000000   -1.4905198347705D+04  3.035D-04
   13.025000   -1.4905179909707D+04  2.987D-04
   13.050000   -1.4905161728259D+04  2.940D-04
   13.075000   -1.4905143799281D+04  2.894D-04
   13.100000   -1.4905126118761D+04  2.848D-04
   13.125000   -1.4905108682760D+04  2.803D-04
   13.150000   -1.4905091487411D+04  2.759D-04
   13.175000   -1.4905074528913D+04  2.716D-04
   13.200000   -1.4905057803533D+04  2.673D-04
   13.225000   -1.4905041307604D+04  2.631D-04
   13.250000   -1.4905025037526D+04  2.589D-04
   13.275000   -1.4905008989759D+04  2.549D-04
   13.300000   -1.4904993160828D+04  2.509D-04
   13.325000   -1.4904977547317D+04  2.469D-04
   13.350000   -1.4904962145871D+04  2.430D-04
   13.375000   -1.4904946953194D+04  2.392D-04
   13.400000   -1.4904931966046D+04  2.354D-04
   13.425000   -1.4904917181245D+04  2.317D-04
   13.450000   -1.4904902595665D+04  2.281D-04
   13.475000   -1.4904888206232D+04  2.245D-04
   13.500000   -1.4904874009926D+04  2.210D-04
   13.525000   -1.4904860003781D+04  2.175D-04
   13.550000   -1.4904846184880D+04  2.141D-04
   13.575000   -1.4904832550357D+04  2.107D-04
   13.600000   -1.4904819097396D+04  2.074D-04
   13.625000   -1.4904805823229D+04  2.042D-04
   13.650000   -1.4904792725135D+04  2.010D-04
   13.675000   -1.4904779800441D+04  1.978D-04
   13.700000   -1.4904767046516D+04  1.947D-04
   13.725000   -1.4904754460779D+04  1.917D-04
   13.750000   -1.4904742040689D+04  1.886D-04
   13.775000   -1.4904729783750D+04  1.857D-04
   13.800000   -1.4904717687508D+04  1.828D-04
   13.825000   -1.4904705749549D+04  1.799D-04
   13.850000   -1.4904693967502D+04  1.771D-04
   13.875000   -1.4904682339035D+04  1.743D-04
   13.900000   -1.4904670861856D+04  1.716D-04
   13.925000   -1.4904659533709D+04  1.689D-04
   13.950000   -1.4904648352380D+04  1.663D-04
   13.975000   -1.4904637315688D+04  1.637D-04
   14.000000   -1.4904626421490D+04  1.611D-04
   14.025000   -1.4904615667680D+04  1.586D-04
   14.050000   -1.4904605052185D+04  1.561D-04
   14.075000   -1.4904594572968D+04  1.537D-04
   14.100000   -1.4904584228025D+04  1.513D-04
   14.125000   -1.4904574015385D+04  1.490D-04
   14.150000   -1.4904563933110D+04  1.466D-04
   14.175000   -1.4904553979294D+04  1.444D-04
   14.200000   -1.4904544152062D+04  1.421D-04
   14.225000   -1.4904534449571D+04  1.399D-04
   14.250000   -1.4904524870005D+04  1.377D-04
   14.275000   -1.4904515411583D+04  1.356D-04
   14.300000   -1.4904506072547D+04  1.335D-04
   14.325000   -1.4904496851173D+04  1.314D-04
   14.350000   -1.4904487745762D+04  1.294D-04
   14.375000   -1.4904478754644D+04  1.274D-04
   14.400000   -1.4904469876174D+04  1.254D-04
   14.425000   -1.4904461108737D+04  1.234D-04
   14.450000   -1.4904452450742D+04  1.215D-04
   14.475000   -1.4904443900624D+04  1.197D-04
   14.500000   -1.4904435456842D+04  1.178D-04
   14.525000   -1.4904427117882D+04  1.160D-04
   14.550000   -1.4904418882253D+04  1.142D-04
   14.575000   -1.4904410748489D+04  1.124D-04
   14.600000   -1.4904402715145D+04  1.107D-04
   14.625000   -1.4904394780802D+04  1.090D-04
   14.650000   -1.4904386944062D+04  1.073D-04
   14.675000   -1.4904379203549D+04  1.057D-04
   14.700000   -1.4904371557910D+04  1.040D-04
   14.725000   -1.4904364005812D+04  1.024D-04
   14.750000   -1.4904356545945D+04  1.009D-04
   14.775000   -1.4904349177018D+04  9.930D-05
   14.800000   -1.4904341897760D+04  9.778D-05
   14.825000   -1.4904334706923D+04  9.628D-05
   14.850000   -1.4904327603275D+04  9.480D-05
   14.875000   -1.4904320585605D+04  9.335D-05
   14.900000   -1.4904313652722D+04  9.192D-05
   14.925000   -1.4904306803451D+04  9.051D-05
   14.950000   -1.4904300036637D+04  8.913D-05
   14.975000   -1.4904293351144D+04  8.777D-05
   15.000000   -1.4904286745851D+04  8.643D-05
   15.025000   -1.4904280219656D+04  8.511D-05
   15.050000   -1.4904273771474D+04  8.381D-05
   15.075000   -1.4904267400238D+04  8.253D-05
   15.100000   -1.4904261104894D+04  8.128D-05
   15.125000   -1.4904254884407D+04  8.004D-05
   15.150000   -1.4904248737758D+04  7.882D-05
   15.175000   -1.4904242663942D+04  7.762D-05
   15.200000   -1.4904236661971D+04  7.644D-05
   15.225000   -1.4904230730871D+04  7.528D-05
   15.250000   -1.4904224869684D+04  7.414D-05
   15.275000   -1.4904219077465D+04  7.302D-05
   15.300000   -1.4904213353284D+04  7.191D-05
   15.325000   -1.4904207696227D+04  7.082D-05
   15.350000   -1.4904202105391D+04  6.975D-05
   15.375000   -1.4904196579889D+04  6.870D-05
   15.400000   -1.4904191118845D+04  6.766D-05
   15.425000   -1.4904185721398D+04  6.664D-05
   15.450000   -1.4904180386701D+04  6.564D-05
   15.475000   -1.4904175113916D+04  6.465D-05
   15.500000   -1.4904169902222D+04  6.367D-05
   15.525000   -1.4904164750807D+04  6.272D-05
   15.550000   -1.4904159658872D+04  6.177D-05
   15.575000   -1.4904154625631D+04  6.084D-05
   15.600000   -1.4904149650309D+04  5.993D-05
   15.625000   -1.4904144732143D+04  5.903D-05
   15.650000   -1.4904139870379D+04  5.815D-05
   15.675000   -1.4904135064278D+04  5.728D-05
   15.700000   -1.4904130313109D+04  5.642D-05
   15.725000   -1.4904125616153D+04  5.558D-05
   15.750000   -1.4904120972701D+04  5.475D-05
   15.775000   -1.4904116382056D+04  5.393D-05
   15.800000   -1.4904111843529D+04  5.312D-05
   15.825000   -1.4904107356442D+04  5.233D-05
   15.850000   -1.4904102920128D+04  5.155D-05
   15.875000   -1.4904098533929D+04  5.079D-05
   15.900000   -1.4904094197196D+04  5.003D-05
   15.925000   -1.4904089909290D+04  4.929D-05
   15.950000   -1.4904085669581D+04  4.856D-05
   15.975000   -1.4904081477450D+04  4.784D-05
   16.000000   -1.4904077332284D+04  4.713D-05
   16.025000   -1.4904073233480D+04  4.643D-05