
variables = "r", "B(r) ", "Uncertainty"
zone T = "State 1 B(r)   77N9p6q3Rf3_6R      "

    0.000000   -6.9125037704483D+00     0.0
    0.025000   -4.9684052208342D-02     0.0
    0.050000   -4.9684393684579D-02     0.0
    0.075000   -4.9685320564620D-02     0.0
    0.100000   -4.9687125586308D-02     0.0
    0.125000   -4.9690101527140D-02     0.0
    0.150000   -4.9694541213442D-02     0.0
    0.175000   -4.9700737527442D-02     0.0
    0.200000   -4.9708983412280D-02     0.0
    0.225000   -4.9719571874901D-02     0.0
    0.250000   -4.9732795986882D-02     0.0
    0.275000   -4.9748948883141D-02     0.0
    0.300000   -4.9768323758565D-02     0.0
    0.325000   -4.9791213862523D-02     0.0
    0.350000   -4.9817912491286D-02     0.0
    0.375000   -4.9848712978327D-02     0.0
    0.400000   -4.9883908682520D-02     0.0
    0.425000   -4.9923792974216D-02     0.0
    0.450000   -4.9968659219205D-02     0.0
    0.475000   -5.0018800760558D-02     0.0
    0.500000   -5.0074510898343D-02     0.0
    0.525000   -5.0136082867214D-02     0.0
    0.550000   -5.0203809811879D-02     0.0
    0.575000   -5.0277984760429D-02     0.0
    0.600000   -5.0358900595547D-02     0.0
    0.625000   -5.0446850023571D-02     0.0
    0.650000   -5.0542125541441D-02     0.0
    0.675000   -5.0645019401505D-02     0.0
    0.700000   -5.0755823574198D-02     0.0
    0.725000   -5.0874829708592D-02     0.0
    0.750000   -5.1002329090821D-02     0.0
    0.775000   -5.1138612600380D-02     0.0
    0.800000   -5.1283970664315D-02     0.0
    0.825000   -5.1438693209287D-02     0.0
    0.850000   -5.1603069611540D-02     0.0
    0.875000   -5.1777388644759D-02     0.0
    0.900000   -5.1961938425847D-02     0.0
    0.925000   -5.2157006358610D-02     0.0
    0.950000   -5.2362879075373D-02     0.0
    0.975000   -5.2579842376533D-02     0.0
    1.000000   -5.2808181168069D-02     0.0
    1.025000   -5.3048179397013D-02     0.0
    1.050000   -5.3300119984901D-02     0.0
    1.075000   -5.3564284759226D-02     0.0
    1.100000   -5.3840954382906D-02     0.0
    1.125000   -5.4130408281786D-02     0.0
    1.150000   -5.4432924570196D-02     0.0
    1.175000   -5.4748779974594D-02     0.0
    1.200000   -5.5078249755304D-02     0.0
    1.225000   -5.5421607626392D-02     0.0
    1.250000   -5.5779125673696D-02     0.0
    1.275000   -5.6151074271035D-02     0.0
    1.300000   -5.6537721994651D-02     0.0
    1.325000   -5.6939335535883D-02     0.0
    1.350000   -5.7356179612138D-02     0.0
    1.375000   -5.7788516876175D-02     0.0
    1.400000   -5.8236607823754D-02     0.0
    1.425000   -5.8700710699675D-02     0.0
    1.450000   -5.9181081402266D-02     0.0
    1.475000   -5.9677973386345D-02     0.0
    1.500000   -6.0191637564723D-02     0.0
    1.525000   -6.0722322208275D-02     0.0
    1.550000   -6.1270272844637D-02     0.0
    1.575000   -6.1835732155592D-02     0.0
    1.600000   -6.2418939873171D-02     0.0
    1.625000   -6.3020132674554D-02     0.0
    1.650000   -6.3639544075808D-02     0.0
    1.675000   -6.4277404324533D-02     0.0
    1.700000   -6.4933940291465D-02     0.0
    1.725000   -6.5609375361115D-02     0.0
    1.750000   -6.6303929321496D-02     0.0
    1.775000   -6.7017818253015D-02     0.0
    1.800000   -6.7751254416585D-02     0.0
    1.825000   -6.8504446141049D-02     0.0
    1.850000   -6.9277597709968D-02     0.0
    1.875000   -7.0070909247862D-02     0.0
    1.900000   -7.0884576605974D-02     0.0
    1.925000   -7.1718791247637D-02     0.0
    1.950000   -7.2573740133327D-02     0.0
    1.975000   -7.3449605605473D-02     0.0
    2.000000   -7.4346565273130D-02     0.0
    2.025000   -7.5264791896575D-02     0.0
    2.050000   -7.6204453271931D-02     0.0
    2.075000   -7.7165712115897D-02     0.0
    2.100000   -7.8148725950684D-02     0.0
    2.125000   -7.9153646989238D-02     0.0
    2.150000   -8.0180622020854D-02     0.0
    2.175000   -8.1229792297266D-02     0.0
    2.200000   -8.2301293419315D-02  3.094D-04
    2.225000   -8.3395255224286D-02  3.074D-04
    2.250000   -8.4511801674026D-02  3.054D-04
    2.275000   -8.5651050743923D-02  3.033D-04
    2.300000   -8.6813114312862D-02  3.012D-04
    2.325000   -8.7998098054249D-02  2.990D-04
    2.350000   -8.9206101328213D-02  2.969D-04
    2.375000   -9.0437217075087D-02  2.947D-04
    2.400000   -9.1691531710268D-02  2.924D-04
    2.425000   -9.2969125020566D-02  2.902D-04
    2.450000   -9.4270070062138D-02  2.879D-04
    2.475000   -9.5594433060128D-02  2.856D-04
    2.500000   -9.6942273310102D-02  2.832D-04
    2.525000   -9.8313643081393D-02  2.809D-04
    2.550000   -9.9708587522463D-02  2.785D-04
    2.575000   -1.0112714456838D-01  2.761D-04
    2.600000   -1.0256934485053D-01  2.736D-04
    2.625000   -1.0403521160866D-01  2.712D-04
    2.650000   -1.0552476060534D-01  2.687D-04
    2.675000   -1.0703800004300D-01  2.662D-04
    2.700000   -1.0857493048362D-01  2.636D-04
    2.725000   -1.1013554477112D-01  2.611D-04
    2.750000   -1.1171982795666D-01  2.585D-04
    2.775000   -1.1332775722689D-01  2.559D-04
    2.800000   -1.1495930183523D-01  2.533D-04
    2.825000   -1.1661442303637D-01  2.507D-04
    2.850000   -1.1829307402400D-01  2.481D-04
    2.875000   -1.1999519987185D-01  2.454D-04
    2.900000   -1.2172073747831D-01  2.428D-04
    2.925000   -1.2346961551448D-01  2.401D-04
    2.950000   -1.2524175437597D-01  2.374D-04
    2.975000   -1.2703706613836D-01  2.347D-04
    3.000000   -1.2885545451653D-01  2.320D-04
    3.025000   -1.3069681482793D-01  2.293D-04
    3.050000   -1.3256103395979D-01  2.265D-04
    3.075000   -1.3444799034051D-01  2.238D-04
    3.100000   -1.3635755391516D-01  2.211D-04
    3.125000   -1.3828958612525D-01  2.183D-04
    3.150000   -1.4024393989282D-01  2.156D-04
    3.175000   -1.4222045960897D-01  2.129D-04
    3.200000   -1.4421898112686D-01  2.101D-04
    3.225000   -1.4623933175917D-01  2.074D-04
    3.250000   -1.4828133028037D-01  2.047D-04
    3.275000   -1.5034478693341D-01  2.019D-04
    3.300000   -1.5242950344138D-01  1.992D-04
    3.325000   -1.5453527302384D-01  1.965D-04
    3.350000   -1.5666188041800D-01  1.938D-04
    3.375000   -1.5880910190484D-01  1.911D-04
    3.400000   -1.6097670534020D-01  1.884D-04
    3.425000   -1.6316445019074D-01  1.857D-04
    3.450000   -1.6537208757509D-01  1.830D-04
    3.475000   -1.6759936030991D-01  1.804D-04
    3.500000   -1.6984600296120D-01  1.777D-04
    3.525000   -1.7211174190059D-01  1.751D-04
    3.550000   -1.7439629536690D-01  1.725D-04
    3.575000   -1.7669937353279D-01  1.699D-04
    3.600000   -1.7902067857664D-01  1.673D-04
    3.625000   -1.8135990475962D-01  1.648D-04
    3.650000   -1.8371673850796D-01  1.623D-04
    3.675000   -1.8609085850046D-01  1.598D-04
    3.700000   -1.8848193576113D-01  1.573D-04
    3.725000   -1.9088963375718D-01  1.549D-04
    3.750000   -1.9331360850204D-01  1.525D-04
    3.775000   -1.9575350866368D-01  1.501D-04
    3.800000   -1.9820897567809D-01  1.477D-04
    3.825000   -2.0067964386778D-01  1.454D-04
    3.850000   -2.0316514056557D-01  1.431D-04
    3.875000   -2.0566508624333D-01  1.409D-04
    3.900000   -2.0817909464580D-01  1.386D-04
    3.925000   -2.1070677292944D-01  1.365D-04
    3.950000   -2.1324772180619D-01  1.343D-04
    3.975000   -2.1580153569220D-01  1.322D-04
    4.000000   -2.1836780286132D-01  1.301D-04
    4.025000   -2.2094610560344D-01  1.281D-04
    4.050000   -2.2353602038755D-01  1.261D-04
    4.075000   -2.2613711802943D-01  1.242D-04
    4.100000   -2.2874896386393D-01  1.223D-04
    4.125000   -2.3137111792176D-01  1.204D-04
    4.150000   -2.3400313511062D-01  1.186D-04
    4.175000   -2.3664456540080D-01  1.168D-04
    4.200000   -2.3929495401483D-01  1.150D-04
    4.225000   -2.4195384162140D-01  1.134D-04
    4.250000   -2.4462076453325D-01  1.117D-04
    4.275000   -2.4729525490896D-01  1.101D-04
    4.300000   -2.4997684095858D-01  1.085D-04
    4.325000   -2.5266504715295D-01  1.070D-04
    4.350000   -2.5535939443654D-01  1.056D-04
    4.375000   -2.5805940044377D-01  1.041D-04
    4.400000   -2.6076457971865D-01  1.028D-04
    4.425000   -2.6347444393749D-01  1.014D-04
    4.450000   -2.6618850213479D-01  1.001D-04
    4.475000   -2.6890626093192D-01  9.890D-05
    4.500000   -2.7162722476853D-01  9.769D-05
    4.525000   -2.7435089613661D-01  9.653D-05
    4.550000   -2.7707677581689D-01  9.542D-05
    4.575000   -2.7980436311762D-01  9.434D-05
    4.600000   -2.8253315611534D-01  9.331D-05
    4.625000   -2.8526265189765D-01  9.231D-05
    4.650000   -2.8799234680770D-01  9.136D-05
    4.675000   -2.9072173669032D-01  9.044D-05
    4.700000   -2.9345031713948D-01  8.956D-05
    4.725000   -2.9617758374703D-01  8.872D-05
    4.750000   -2.9890303235247D-01  8.791D-05
    4.775000   -3.0162615929354D-01  8.714D-05
    4.800000   -3.0434646165746D-01  8.639D-05
    4.825000   -3.0706343753269D-01  8.568D-05
    4.850000   -3.0977658626086D-01  8.500D-05
    4.875000   -3.1248540868889D-01  8.435D-05
    4.900000   -3.1518940742079D-01  8.372D-05
    4.925000   -3.1788808706933D-01  8.313D-05
    4.950000   -3.2058095450697D-01  8.255D-05
    4.975000   -3.2326751911614D-01  8.200D-05
    5.000000   -3.2594729303857D-01  8.147D-05
    5.025000   -3.2861979142333D-01  8.097D-05
    5.050000   -3.3128453267359D-01  8.048D-05
    5.075000   -3.3394103869177D-01  8.001D-05
    5.100000   -3.3658883512279D-01  7.955D-05
    5.125000   -3.3922745159540D-01  7.911D-05
    5.150000   -3.4185642196122D-01  7.869D-05
    5.175000   -3.4447528453129D-01  7.827D-05
    5.200000   -3.4708358231006D-01  7.787D-05
    5.225000   -3.4968086322639D-01  7.748D-05
    5.250000   -3.5226668036154D-01  7.710D-05
    5.275000   -3.5484059217382D-01  7.672D-05
    5.300000   -3.5740216271979D-01  7.635D-05
    5.325000   -3.5995096187164D-01  7.599D-05
    5.350000   -3.6248656553078D-01  7.562D-05
    5.375000   -3.6500855583728D-01  7.526D-05
    5.400000   -3.6751652137489D-01  7.491D-05
    5.425000   -3.7001005737174D-01  7.455D-05
    5.450000   -3.7248876589615D-01  7.419D-05
    5.475000   -3.7495225604769D-01  7.383D-05
    5.500000   -3.7740014414308D-01  7.347D-05
    5.525000   -3.7983205389686D-01  7.311D-05
    5.550000   -3.8224761659667D-01  7.273D-05
    5.575000   -3.8464647127282D-01  7.236D-05
    5.600000   -3.8702826486226D-01  7.198D-05
    5.625000   -3.8939265236645D-01  7.158D-05
    5.650000   -3.9173929700326D-01  7.119D-05
    5.675000   -3.9406787035263D-01  7.078D-05
    5.700000   -3.9637805249579D-01  7.036D-05
    5.725000   -3.9866953214809D-01  6.993D-05
    5.750000   -4.0094200678507D-01  6.949D-05
    5.775000   -4.0319518276190D-01  6.904D-05
    5.800000   -4.0542877542585D-01  6.857D-05
    5.825000   -4.0764250922188D-01  6.809D-05
    5.850000   -4.0983611779108D-01  6.760D-05
    5.875000   -4.1200934406200D-01  6.709D-05
    5.900000   -4.1416194033472D-01  6.656D-05
    5.925000   -4.1629366835767D-01  6.602D-05
    5.950000   -4.1840429939693D-01  6.546D-05
    5.975000   -4.2049361429830D-01  6.489D-05
    6.000000   -4.2256140354171D-01  6.430D-05
    6.025000   -4.2460746728824D-01  6.369D-05
    6.050000   -4.2663161541953D-01  6.306D-05
    6.075000   -4.2863366756972D-01  6.241D-05
    6.100000   -4.3061345314971D-01  6.175D-05
    6.125000   -4.3257081136394D-01  6.106D-05
    6.150000   -4.3450559121961D-01  6.036D-05
    6.175000   -4.3641765152836D-01  5.964D-05
    6.200000   -4.3830686090040D-01  5.890D-05
    6.225000   -4.4017309773128D-01  5.814D-05
    6.250000   -4.4201625018116D-01  5.736D-05
    6.275000   -4.4383621614676D-01  5.656D-05
    6.300000   -4.4563290322607D-01  5.575D-05
    6.325000   -4.4740622867573D-01  5.491D-05
    6.350000   -4.4915611936145D-01  5.407D-05
    6.375000   -4.5088251170128D-01  5.320D-05
    6.400000   -4.5258535160203D-01  5.232D-05
    6.425000   -4.5426459438885D-01  5.143D-05
    6.450000   -4.5592020472815D-01  5.053D-05
    6.475000   -4.5755215654396D-01  4.961D-05
    6.500000   -4.5916043292784D-01  4.869D-05
    6.525000   -4.6074502604261D-01  4.776D-05
    6.550000   -4.6230593701988D-01  4.682D-05
    6.575000   -4.6384317585165D-01  4.589D-05
    6.600000   -4.6535676127614D-01  4.495D-05
    6.625000   -4.6684672065802D-01  4.402D-05
    6.650000   -4.6831308986317D-01  4.311D-05
    6.675000   -4.6975591312821D-01  4.220D-05
    6.700000   -4.7117524292502D-01  4.131D-05
    6.725000   -4.7257113982036D-01  4.045D-05
    6.750000   -4.7394367233082D-01  3.962D-05
    6.775000   -4.7529291677342D-01  3.882D-05
    6.800000   -4.7661895711187D-01  3.807D-05
    6.825000   -4.7792188479888D-01  3.737D-05
    6.850000   -4.7920179861463D-01  3.672D-05
    6.875000   -4.8045880450168D-01  3.615D-05
    6.900000   -4.8169301539652D-01  3.566D-05
    6.925000   -4.8290455105801D-01  3.524D-05
    6.950000   -4.8409353789281D-01  3.493D-05
    6.975000   -4.8526010877832D-01  3.472D-05
    7.000000   -4.8640440288294D-01  3.462D-05
    7.025000   -4.8752656548431D-01  3.463D-05
    7.050000   -4.8862674778546D-01  3.478D-05
    7.075000   -4.8970510672915D-01  3.505D-05
    7.100000   -4.9076180481079D-01  3.545D-05
    7.125000   -4.9179700988996D-01  3.598D-05
    7.150000   -4.9281089500084D-01  3.665D-05
    7.175000   -4.9380363816184D-01  3.744D-05
    7.200000   -4.9477542218450D-01  3.837D-05
    7.225000   -4.9572643448202D-01  3.942D-05
    7.250000   -4.9665686687754D-01  4.059D-05
    7.275000   -4.9756691541243D-01  4.187D-05
    7.300000   -4.9845678015475D-01  4.326D-05
    7.325000   -4.9932666500816D-01  4.476D-05
    7.350000   -5.0017677752138D-01  4.635D-05
    7.375000   -5.0100732869850D-01  4.803D-05
    7.400000   -5.0181853281019D-01  4.979D-05
    7.425000   -5.0261060720612D-01  5.164D-05
    7.450000   -5.0338377212877D-01  5.355D-05
    7.475000   -5.0413825052868D-01  5.554D-05
    7.500000   -5.0487426788137D-01  5.759D-05
    7.525000   -5.0559205200622D-01  5.970D-05
    7.550000   -5.0629183288719D-01  6.187D-05
    7.575000   -5.0697384249581D-01  6.408D-05
    7.600000   -5.0763831461639D-01  6.635D-05
    7.625000   -5.0828548467366D-01  6.866D-05
    7.650000   -5.0891558956302D-01  7.101D-05
    7.675000   -5.0952886748336D-01  7.341D-05
    7.700000   -5.1012555777276D-01  7.584D-05
    7.725000   -5.1070590074708D-01  7.830D-05
    7.750000   -5.1127013754147D-01  8.079D-05
    7.775000   -5.1181850995511D-01  8.331D-05
    7.800000   -5.1235126029898D-01  8.586D-05
    7.825000   -5.1286863124708D-01  8.844D-05
    7.850000   -5.1337086569081D-01  9.103D-05
    7.875000   -5.1385820659691D-01  9.365D-05
    7.900000   -5.1433089686878D-01  9.629D-05
    7.925000   -5.1478917921138D-01  9.894D-05
    7.950000   -5.1523329599973D-01  1.016D-04
    7.975000   -5.1566348915094D-01  1.043D-04
    8.000000   -5.1608000000000D-01  1.070D-04
    8.025000   -5.1648306917925D-01  1.097D-04
    8.050000   -5.1687293650151D-01  1.124D-04
    8.075000   -5.1724984084698D-01  1.151D-04
    8.100000   -5.1761402005392D-01  1.179D-04
    8.125000   -5.1796571081303D-01  1.206D-04
    8.150000   -5.1830514856565D-01  1.234D-04
    8.175000   -5.1863256740567D-01  1.261D-04
    8.200000   -5.1894819998519D-01  1.289D-04
    8.225000   -5.1925227742402D-01  1.316D-04
    8.250000   -5.1954502922272D-01  1.344D-04
    8.275000   -5.1982668317951D-01  1.371D-04
    8.300000   -5.2009746531078D-01  1.398D-04
    8.325000   -5.2035759977522D-01  1.426D-04
    8.350000   -5.2060730880166D-01  1.453D-04
    8.375000   -5.2084681262033D-01  1.481D-04
    8.400000   -5.2107632939783D-01  1.508D-04
    8.425000   -5.2129607517545D-01  1.535D-04
    8.450000   -5.2150626381101D-01  1.562D-04
    8.475000   -5.2170710692405D-01  1.589D-04
    8.500000   -5.2189881384439D-01  1.616D-04
    8.525000   -5.2208159156394D-01  1.643D-04
    8.550000   -5.2225564469179D-01  1.669D-04
    8.575000   -5.2242117541238D-01  1.696D-04
    8.600000   -5.2257838344686D-01  1.722D-04
    8.625000   -5.2272746601745D-01  1.748D-04
    8.650000   -5.2286861781475D-01  1.775D-04
    8.675000   -5.2300203096801D-01  1.800D-04
    8.700000   -5.2312789501818D-01  1.826D-04
    8.725000   -5.2324639689380D-01  1.852D-04
    8.750000   -5.2335772088950D-01  1.877D-04
    8.775000   -5.2346204864721D-01  1.902D-04
    8.800000   -5.2355955913986D-01  1.927D-04
    8.825000   -5.2365042865759D-01  1.952D-04
    8.850000   -5.2373483079641D-01  1.977D-04
    8.875000   -5.2381293644910D-01  2.001D-04
    8.900000   -5.2388491379842D-01  2.025D-04
    8.925000   -5.2395092831259D-01  2.049D-04
    8.950000   -5.2401114274270D-01  2.073D-04
    8.975000   -5.2406571712235D-01  2.097D-04
    9.000000   -5.2411480876914D-01  2.120D-04
    9.025000   -5.2415857228811D-01  2.143D-04
    9.050000   -5.2419715957696D-01  2.166D-04
    9.075000   -5.2423071983308D-01  2.188D-04
    9.100000   -5.2425939956222D-01  2.211D-04
    9.125000   -5.2428334258877D-01  2.233D-04
    9.150000   -5.2430269006760D-01  2.254D-04
    9.175000   -5.2431758049739D-01  2.276D-04
    9.200000   -5.2432814973531D-01  2.297D-04
    9.225000   -5.2433453101309D-01  2.318D-04
    9.250000   -5.2433685495438D-01  2.339D-04
    9.275000   -5.2433524959324D-01  2.359D-04
    9.300000   -5.2432984039387D-01  2.379D-04
    9.325000   -5.2432075027135D-01  2.399D-04
    9.350000   -5.2430809961349D-01  2.419D-04
    9.375000   -5.2429200630356D-01  2.438D-04
    9.400000   -5.2427258574399D-01  2.457D-04
    9.425000   -5.2424995088088D-01  2.476D-04
    9.450000   -5.2422421222936D-01  2.494D-04
    9.475000   -5.2419547789963D-01  2.513D-04
    9.500000   -5.2416385362375D-01  2.530D-04
    9.525000   -5.2412944278302D-01  2.548D-04
    9.550000   -5.2409234643599D-01  2.565D-04
    9.575000   -5.2405266334701D-01  2.582D-04
    9.600000   -5.2401049001524D-01  2.599D-04
    9.625000   -5.2396592070415D-01  2.615D-04
    9.650000   -5.2391904747142D-01  2.632D-04
    9.675000   -5.2386996019917D-01  2.647D-04
    9.700000   -5.2381874662459D-01  2.663D-04
    9.725000   -5.2376549237077D-01  2.678D-04
    9.750000   -5.2371028097782D-01  2.693D-04
    9.775000   -5.2365319393422D-01  2.708D-04
    9.800000   -5.2359431070829D-01  2.722D-04
    9.825000   -5.2353370877983D-01  2.736D-04
    9.850000   -5.2347146367190D-01  2.750D-04
    9.875000   -5.2340764898262D-01  2.763D-04
    9.900000   -5.2334233641701D-01  2.776D-04
    9.925000   -5.2327559581896D-01  2.789D-04
    9.950000   -5.2320749520304D-01  2.802D-04
    9.975000   -5.2313810078634D-01  2.814D-04
   10.000000   -5.2306747702032D-01  2.826D-04
   10.025000   -5.2299568662244D-01  2.838D-04
   10.050000   -5.2292279060777D-01  2.849D-04
   10.075000   -5.2284884832045D-01  2.860D-04
   10.100000   -5.2277391746502D-01  2.871D-04
   10.125000   -5.2269805413752D-01  2.882D-04
   10.150000   -5.2262131285648D-01  2.892D-04
   10.175000   -5.2254374659365D-01  2.902D-04
   10.200000   -5.2246540680453D-01  2.912D-04
   10.225000   -5.2238634345867D-01  2.921D-04
   10.250000   -5.2230660506969D-01  2.930D-04
   10.275000   -5.2222623872507D-01  2.939D-04
   10.300000   -5.2214529011565D-01  2.948D-04
   10.325000   -5.2206380356482D-01  2.956D-04
   10.350000   -5.2198182205743D-01  2.964D-04
   10.375000   -5.2189938726841D-01  2.972D-04
   10.400000   -5.2181653959105D-01  2.980D-04
   10.425000   -5.2173331816490D-01  2.987D-04
   10.450000   -5.2164976090343D-01  2.994D-04
   10.475000   -5.2156590452130D-01  3.001D-04
   10.500000   -5.2148178456125D-01  3.007D-04
   10.525000   -5.2139743542070D-01  3.014D-04
   10.550000   -5.2131289037792D-01  3.020D-04
   10.575000   -5.2122818161789D-01  3.026D-04
   10.600000   -5.2114334025776D-01  3.031D-04
   10.625000   -5.2105839637194D-01  3.036D-04
   10.650000   -5.2097337901683D-01  3.042D-04
   10.675000   -5.2088831625514D-01  3.046D-04
   10.700000   -5.2080323517985D-01  3.051D-04
   10.725000   -5.2071816193780D-01  3.055D-04
   10.750000   -5.2063312175286D-01  3.060D-04
   10.775000   -5.2054813894876D-01  3.064D-04
   10.800000   -5.2046323697148D-01  3.067D-04
   10.825000   -5.2037843841129D-01  3.071D-04
   10.850000   -5.2029376502444D-01  3.074D-04
   10.875000   -5.2020923775435D-01  3.077D-04
   10.900000   -5.2012487675257D-01  3.080D-04
   10.925000   -5.2004070139924D-01  3.083D-04
   10.950000   -5.1995673032322D-01  3.085D-04
   10.975000   -5.1987298142181D-01  3.087D-04
   11.000000   -5.1978947188018D-01  3.089D-04
   11.025000   -5.1970621819027D-01  3.091D-04
   11.050000   -5.1962323616949D-01  3.093D-04
   11.075000   -5.1954054097896D-01  3.094D-04
   11.100000   -5.1945814714135D-01  3.095D-04
   11.125000   -5.1937606855846D-01  3.096D-04
   11.150000   -5.1929431852837D-01  3.097D-04
   11.175000   -5.1921290976222D-01  3.098D-04
   11.200000   -5.1913185440073D-01  3.098D-04
   11.225000   -5.1905116403028D-01  3.099D-04
   11.250000   -5.1897084969865D-01  3.099D-04
   11.275000   -5.1889092193052D-01  3.099D-04
   11.300000   -5.1881139074249D-01  3.099D-04
   11.325000   -5.1873226565790D-01  3.098D-04
   11.350000   -5.1865355572122D-01  3.098D-04
   11.375000   -5.1857526951219D-01  3.097D-04
   11.400000   -5.1849741515960D-01  3.096D-04
   11.425000   -5.1842000035480D-01  3.095D-04
   11.450000   -5.1834303236481D-01  3.094D-04
   11.475000   -5.1826651804524D-01  3.093D-04
   11.500000   -5.1819046385285D-01  3.092D-04
   11.525000   -5.1811487585780D-01  3.090D-04
   11.550000   -5.1803975975564D-01  3.088D-04
   11.575000   -5.1796512087901D-01  3.086D-04
   11.600000   -5.1789096420905D-01  3.084D-04
   11.625000   -5.1781729438653D-01  3.082D-04
   11.650000   -5.1774411572274D-01  3.080D-04
   11.675000   -5.1767143221007D-01  3.078D-04
   11.700000   -5.1759924753233D-01  3.075D-04
   11.725000   -5.1752756507488D-01  3.072D-04
   11.750000   -5.1745638793440D-01  3.070D-04
   11.775000   -5.1738571892851D-01  3.067D-04
   11.800000   -5.1731556060509D-01  3.064D-04
   11.825000   -5.1724591525137D-01  3.061D-04
   11.850000   -5.1717678490282D-01  3.057D-04
   11.875000   -5.1710817135174D-01  3.054D-04
   11.900000   -5.1704007615571D-01  3.051D-04
   11.925000   -5.1697250064576D-01  3.047D-04
   11.950000   -5.1690544593432D-01  3.043D-04
   11.975000   -5.1683891292304D-01  3.039D-04
   12.000000   -5.1677290231027D-01  3.036D-04
   12.025000   -5.1670741459846D-01  3.032D-04
   12.050000   -5.1664245010130D-01  3.028D-04
   12.075000   -5.1657800895067D-01  3.023D-04
   12.100000   -5.1651409110341D-01  3.019D-04
   12.125000   -5.1645069634790D-01  3.015D-04
   12.150000   -5.1638782431045D-01  3.010D-04
   12.175000   -5.1632547446155D-01  3.006D-04
   12.200000   -5.1626364612187D-01  3.001D-04
   12.225000   -5.1620233846819D-01  2.997D-04
   12.250000   -5.1614155053905D-01  2.992D-04
   12.275000   -5.1608128124037D-01  2.987D-04
   12.300000   -5.1602152935075D-01  2.982D-04
   12.325000   -5.1596229352679D-01  2.977D-04
   12.350000   -5.1590357230810D-01  2.972D-04
   12.375000   -5.1584536412230D-01  2.967D-04
   12.400000   -5.1578766728975D-01  2.962D-04
   12.425000   -5.1573048002823D-01  2.956D-04
   12.450000   -5.1567380045746D-01  2.951D-04
   12.475000   -5.1561762660343D-01  2.946D-04
   12.500000   -5.1556195640271D-01  2.940D-04
   12.525000   -5.1550678770652D-01  2.935D-04
   12.550000   -5.1545211828472D-01  2.929D-04
   12.575000   -5.1539794582972D-01  2.923D-04
   12.600000   -5.1534426796021D-01  2.918D-04
   12.625000   -5.1529108222477D-01  2.912D-04
   12.650000   -5.1523838610546D-01  2.906D-04
   12.675000   -5.1518617702116D-01  2.900D-04
   12.700000   -5.1513445233092D-01  2.894D-04
   12.725000   -5.1508320933718D-01  2.889D-04
   12.750000   -5.1503244528880D-01  2.883D-04
   12.775000   -5.1498215738415D-01  2.877D-04
   12.800000   -5.1493234277394D-01  2.870D-04
   12.825000   -5.1488299856408D-01  2.864D-04
   12.850000   -5.1483412181838D-01  2.858D-04
   12.875000   -5.1478570956119D-01  2.852D-04
   12.900000   -5.1473775877994D-01  2.846D-04
   12.925000   -5.1469026642759D-01  2.840D-04
   12.950000   -5.1464322942502D-01  2.833D-04
   12.975000   -5.1459664466332D-01  2.827D-04
   13.000000   -5.1455050900603D-01  2.821D-04
   13.025000   -5.1450481929126D-01  2.814D-04
   13.050000   -5.1445957233377D-01  2.808D-04
   13.075000   -5.1441476492697D-01  2.801D-04
   13.100000   -5.1437039384485D-01  2.795D-04
   13.125000   -5.1432645584384D-01  2.788D-04
   13.150000   -5.1428294766463D-01  2.782D-04
   13.175000   -5.1423986603384D-01  2.775D-04
   13.200000   -5.1419720766577D-01  2.769D-04
   13.225000   -5.1415496926395D-01  2.762D-04
   13.250000   -5.1411314752272D-01  2.755D-04
   13.275000   -5.1407173912872D-01  2.749D-04
   13.300000   -5.1403074076233D-01  2.742D-04
   13.325000   -5.1399014909905D-01  2.736D-04
   13.350000   -5.1394996081082D-01  2.729D-04
   13.375000   -5.1391017256735D-01  2.722D-04
   13.400000   -5.1387078103730D-01  2.715D-04
   13.425000   -5.1383178288949D-01  2.709D-04
   13.450000   -5.1379317479403D-01  2.702D-04
   13.475000   -5.1375495342345D-01  2.695D-04
   13.500000   -5.1371711545370D-01  2.688D-04
   13.525000   -5.1367965756518D-01  2.682D-04
   13.550000   -5.1364257644371D-01  2.675D-04
   13.575000   -5.1360586878146D-01  2.668D-04
   13.600000   -5.1356953127782D-01  2.661D-04
   13.625000   -5.1353356064030D-01  2.655D-04
   13.650000   -5.1349795358526D-01  2.648D-04
   13.675000   -5.1346270683879D-01  2.641D-04
   13.700000   -5.1342781713736D-01  2.634D-04
   13.725000   -5.1339328122862D-01  2.627D-04
   13.750000   -5.1335909587202D-01  2.621D-04
   13.775000   -5.1332525783946D-01  2.614D-04
   13.800000   -5.1329176391597D-01  2.607D-04
   13.825000   -5.1325861090022D-01  2.600D-04
   13.850000   -5.1322579560514D-01  2.593D-04
   13.875000   -5.1319331485844D-01  2.587D-04
   13.900000   -5.1316116550311D-01  2.580D-04
   13.925000   -5.1312934439789D-01  2.573D-04
   13.950000   -5.1309784841778D-01  2.566D-04
   13.975000   -5.1306667445440D-01  2.559D-04
   14.000000   -5.1303581941648D-01  2.553D-04
   14.025000   -5.1300528023018D-01  2.546D-04
   14.050000   -5.1297505383950D-01  2.539D-04
   14.075000   -5.1294513720662D-01  2.532D-04
   14.100000   -5.1291552731221D-01  2.525D-04
   14.125000   -5.1288622115573D-01  2.519D-04
   14.150000   -5.1285721575577D-01  2.512D-04
   14.175000   -5.1282850815024D-01  2.505D-04
   14.200000   -5.1280009539671D-01  2.499D-04
   14.225000   -5.1277197457255D-01  2.492D-04
   14.250000   -5.1274414277523D-01  2.485D-04
   14.275000   -5.1271659712248D-01  2.478D-04
   14.300000   -5.1268933475248D-01  2.472D-04
   14.325000   -5.1266235282405D-01  2.465D-04
   14.350000   -5.1263564851677D-01  2.458D-04
   14.375000   -5.1260921903119D-01  2.452D-04
   14.400000   -5.1258306158887D-01  2.445D-04
   14.425000   -5.1255717343261D-01  2.438D-04
   14.450000   -5.1253155182644D-01  2.432D-04
   14.475000   -5.1250619405579D-01  2.425D-04
   14.500000   -5.1248109742757D-01  2.419D-04
   14.525000   -5.1245625927019D-01  2.412D-04
   14.550000   -5.1243167693368D-01  2.406D-04
   14.575000   -5.1240734778970D-01  2.399D-04
   14.600000   -5.1238326923161D-01  2.392D-04
   14.625000   -5.1235943867447D-01  2.386D-04
   14.650000   -5.1233585355510D-01  2.379D-04
   14.675000   -5.1231251133206D-01  2.373D-04
   14.700000   -5.1228940948567D-01  2.367D-04
   14.725000   -5.1226654551803D-01  2.360D-04
   14.750000   -5.1224391695295D-01  2.354D-04
   14.775000   -5.1222152133601D-01  2.347D-04
   14.800000   -5.1219935623446D-01  2.341D-04
   14.825000   -5.1217741923724D-01  2.335D-04
   14.850000   -5.1215570795494D-01  2.328D-04
   14.875000   -5.1213422001973D-01  2.322D-04
   14.900000   -5.1211295308530D-01  2.316D-04
   14.925000   -5.1209190482687D-01  2.309D-04
   14.950000   -5.1207107294105D-01  2.303D-04
   14.975000   -5.1205045514582D-01  2.297D-04
   15.000000   -5.1203004918045D-01  2.290D-04
   15.025000   -5.1200985280542D-01  2.284D-04
   15.050000   -5.1198986380234D-01  2.278D-04
   15.075000   -5.1197007997386D-01  2.272D-04
   15.100000   -5.1195049914360D-01  2.266D-04
   15.125000   -5.1193111915603D-01  2.260D-04
   15.150000   -5.1191193787638D-01  2.254D-04
   15.175000   -5.1189295319058D-01  2.247D-04
   15.200000   -5.1187416300508D-01  2.241D-04
   15.225000   -5.1185556524681D-01  2.235D-04
   15.250000   -5.1183715786305D-01  2.229D-04
   15.275000   -5.1181893882129D-01  2.223D-04
   15.300000   -5.1180090610916D-01  2.217D-04
   15.325000   -5.1178305773429D-01  2.211D-04
   15.350000   -5.1176539172416D-01  2.205D-04
   15.375000   -5.1174790612604D-01  2.200D-04
   15.400000   -5.1173059900682D-01  2.194D-04
   15.425000   -5.1171346845290D-01  2.188D-04
   15.450000   -5.1169651257004D-01  2.182D-04
   15.475000   -5.1167972948328D-01  2.176D-04
   15.500000   -5.1166311733673D-01  2.170D-04
   15.525000   -5.1164667429353D-01  2.165D-04
   15.550000   -5.1163039853562D-01  2.159D-04
   15.575000   -5.1161428826368D-01  2.153D-04
   15.600000   -5.1159834169697D-01  2.147D-04
   15.625000   -5.1158255707315D-01  2.142D-04
   15.650000   -5.1156693264821D-01  2.136D-04
   15.675000   -5.1155146669627D-01  2.130D-04
   15.700000   -5.1153615750949D-01  2.125D-04
   15.725000   -5.1152100339787D-01  2.119D-04
   15.750000   -5.1150600268918D-01  2.114D-04
   15.775000   -5.1149115372874D-01  2.108D-04
   15.800000   -5.1147645487932D-01  2.103D-04
   15.825000   -5.1146190452102D-01  2.097D-04
   15.850000   -5.1144750105107D-01  2.092D-04
   15.875000   -5.1143324288370D-01  2.086D-04
   15.900000   -5.1141912845003D-01  2.081D-04
   15.925000   -5.1140515619789D-01  2.075D-04
   15.950000   -5.1139132459168D-01  2.070D-04
   15.975000   -5.1137763211226D-01  2.065D-04
   16.000000   -5.1136407725673D-01  2.059D-04
   16.025000   -5.1135065853838D-01  2.054D-04