
variables = "r", "B(r) ", "Uncertainty"
zone T = "State 1 B(r)   66N09p6q2Rf4_8      "

    0.000000   -6.9930763814569D+00     0.0
    0.025000   -2.4765210693562D-01     0.0
    0.050000   -2.4765176476507D-01     0.0
    0.075000   -2.4765083603360D-01     0.0
    0.100000   -2.4764902750967D-01     0.0
    0.125000   -2.4764604603641D-01     0.0
    0.150000   -2.4764159857496D-01     0.0
    0.175000   -2.4763539225754D-01     0.0
    0.200000   -2.4762713444986D-01     0.0
    0.225000   -2.4761653282318D-01     0.0
    0.250000   -2.4760329543588D-01     0.0
    0.275000   -2.4758713082451D-01     0.0
    0.300000   -2.4756774810434D-01     0.0
    0.325000   -2.4754485707946D-01     0.0
    0.350000   -2.4751816836225D-01     0.0
    0.375000   -2.4748739350236D-01     0.0
    0.400000   -2.4745224512503D-01     0.0
    0.425000   -2.4741243707888D-01     0.0
    0.450000   -2.4736768459289D-01     0.0
    0.475000   -2.4731770444278D-01     0.0
    0.500000   -2.4726221512650D-01     0.0
    0.525000   -2.4720093704898D-01     0.0
    0.550000   -2.4713359271582D-01     0.0
    0.575000   -2.4705990693612D-01     0.0
    0.600000   -2.4697960703411D-01     0.0
    0.625000   -2.4689242306963D-01     0.0
    0.650000   -2.4679808806725D-01     0.0
    0.675000   -2.4669633825402D-01     0.0
    0.700000   -2.4658691330560D-01     0.0
    0.725000   -2.4646955660072D-01     0.0
    0.750000   -2.4634401548373D-01     0.0
    0.775000   -2.4621004153514D-01     0.0
    0.800000   -2.4606739084993D-01     0.0
    0.825000   -2.4591582432344D-01     0.0
    0.850000   -2.4575510794465D-01     0.0
    0.875000   -2.4558501309660D-01     0.0
    0.900000   -2.4540531686375D-01     0.0
    0.925000   -2.4521580234594D-01     0.0
    0.950000   -2.4501625897885D-01     0.0
    0.975000   -2.4480648286048D-01     0.0
    1.000000   -2.4458627708353D-01     0.0
    1.025000   -2.4435545207323D-01     0.0
    1.050000   -2.4411382593035D-01     0.0
    1.075000   -2.4386122477911D-01     0.0
    1.100000   -2.4359748311947D-01     0.0
    1.125000   -2.4332244418359D-01     0.0
    1.150000   -2.4303596029595D-01     0.0
    1.175000   -2.4273789323675D-01     0.0
    1.200000   -2.4242811460821D-01     0.0
    1.225000   -2.4210650620326D-01     0.0
    1.250000   -2.4177296037618D-01     0.0
    1.275000   -2.4142738041471D-01     0.0
    1.300000   -2.4106968091317D-01     0.0
    1.325000   -2.4069978814599D-01     0.0
    1.350000   -2.4031764044124D-01     0.0
    1.375000   -2.3992318855350D-01     0.0
    1.400000   -2.3951639603557D-01     0.0
    1.425000   -2.3909723960844D-01     0.0
    1.450000   -2.3866570952894D-01     0.0
    1.475000   -2.3822180995436D-01     0.0
    1.500000   -2.3776555930356D-01     0.0
    1.525000   -2.3729699061385D-01     0.0
    1.550000   -2.3681615189300D-01     0.0
    1.575000   -2.3632310646570D-01     0.0
    1.600000   -2.3581793331380D-01     0.0
    1.625000   -2.3530072740967D-01     0.0
    1.650000   -2.3477160004194D-01     0.0
    1.675000   -2.3423067913289D-01     0.0
    1.700000   -2.3367810954679D-01     0.0
    1.725000   -2.3311405338849D-01     0.0
    1.750000   -2.3253869029147D-01     0.0
    1.775000   -2.3195221769452D-01     0.0
    1.800000   -2.3135485110649D-01     0.0
    1.825000   -2.3074682435821D-01     0.0
    1.850000   -2.3012838984076D-01     0.0
    1.875000   -2.2949981872949D-01     0.0
    1.900000   -2.2886140119281D-01     0.0
    1.925000   -2.2821344658520D-01     0.0
    1.950000   -2.2755628362344D-01     0.0
    1.975000   -2.2689026054539D-01     0.0
    2.000000   -2.2621574525064D-01     0.0
    2.025000   -2.2553312542200D-01     0.0
    2.050000   -2.2484280862738D-01     0.0
    2.075000   -2.2414522240104D-01     0.0
    2.100000   -2.2344081430359D-01     0.0
    2.125000   -2.2273005196004D-01     0.0
    2.150000   -2.2201342307499D-01     0.0
    2.175000   -2.2129143542445D-01     0.0
    2.200000   -2.2056461682346D-01  1.102D-02
    2.225000   -2.1983351506888D-01  1.096D-02
    2.250000   -2.1909869785663D-01  1.089D-02
    2.275000   -2.1836075267278D-01  1.082D-02
    2.300000   -2.1762028665788D-01  1.075D-02
    2.325000   -2.1687792644380D-01  1.068D-02
    2.350000   -2.1613431796271D-01  1.061D-02
    2.375000   -2.1539012622741D-01  1.053D-02
    2.400000   -2.1464603508271D-01  1.046D-02
    2.425000   -2.1390274692716D-01  1.038D-02
    2.450000   -2.1316098240482D-01  1.031D-02
    2.475000   -2.1242148006655D-01  1.023D-02
    2.500000   -2.1168499600053D-01  1.015D-02
    2.525000   -2.1095230343146D-01  1.007D-02
    2.550000   -2.1022419228835D-01  9.995D-03
    2.575000   -2.0950146874045D-01  9.914D-03
    2.600000   -2.0878495470118D-01  9.833D-03
    2.625000   -2.0807548729984D-01  9.751D-03
    2.650000   -2.0737391832090D-01  9.669D-03
    2.675000   -2.0668111361090D-01  9.585D-03
    2.700000   -2.0599795245274D-01  9.501D-03
    2.725000   -2.0532532690755D-01  9.416D-03
    2.750000   -2.0466414112401D-01  9.331D-03
    2.775000   -2.0401531061534D-01  9.245D-03
    2.800000   -2.0337976150408D-01  9.158D-03
    2.825000   -2.0275842973491D-01  9.071D-03
    2.850000   -2.0215226025571D-01  8.983D-03
    2.875000   -2.0156220616723D-01  8.895D-03
    2.900000   -2.0098922784185D-01  8.807D-03
    2.925000   -2.0043429201167D-01  8.718D-03
    2.950000   -1.9989837082662D-01  8.628D-03
    2.975000   -1.9938244088313D-01  8.539D-03
    3.000000   -1.9888748222396D-01  8.449D-03
    3.025000   -1.9841447730979D-01  8.358D-03
    3.050000   -1.9796440996363D-01  8.268D-03
    3.075000   -1.9753826428849D-01  8.177D-03
    3.100000   -1.9713702355953D-01  8.086D-03
    3.125000   -1.9676166909141D-01  7.995D-03
    3.150000   -1.9641317908199D-01  7.904D-03
    3.175000   -1.9609252743344D-01  7.813D-03
    3.200000   -1.9580068255184D-01  7.721D-03
    3.225000   -1.9553860612654D-01  7.630D-03
    3.250000   -1.9530725189053D-01  7.539D-03
    3.275000   -1.9510756436322D-01  7.448D-03
    3.300000   -1.9494047757681D-01  7.357D-03
    3.325000   -1.9480691378804D-01  7.267D-03
    3.350000   -1.9470778217651D-01  7.176D-03
    3.375000   -1.9464397753135D-01  7.086D-03
    3.400000   -1.9461637892778D-01  6.997D-03
    3.425000   -1.9462584839527D-01  6.907D-03
    3.450000   -1.9467322957902D-01  6.818D-03
    3.475000   -1.9475934639660D-01  6.729D-03
    3.500000   -1.9488500169145D-01  6.641D-03
    3.525000   -1.9505097588535D-01  6.554D-03
    3.550000   -1.9525802563158D-01  6.466D-03
    3.575000   -1.9550688247082D-01  6.380D-03
    3.600000   -1.9579825149188D-01  6.294D-03
    3.625000   -1.9613280999914D-01  6.209D-03
    3.650000   -1.9651120618895D-01  6.124D-03
    3.675000   -1.9693405783702D-01  6.040D-03
    3.700000   -1.9740195099894D-01  5.957D-03
    3.725000   -1.9791543872606D-01  5.875D-03
    3.750000   -1.9847503979880D-01  5.793D-03
    3.775000   -1.9908123747976D-01  5.712D-03
    3.800000   -1.9973447828869D-01  5.633D-03
    3.825000   -2.0043517080169D-01  5.554D-03
    3.850000   -2.0118368447672D-01  5.476D-03
    3.875000   -2.0198034850787D-01  5.399D-03
    3.900000   -2.0282545071039D-01  5.322D-03
    3.925000   -2.0371923643890D-01  5.247D-03
    3.950000   -2.0466190754089D-01  5.173D-03
    3.975000   -2.0565362134781D-01  5.100D-03
    4.000000   -2.0669448970578D-01  5.028D-03
    4.025000   -2.0778457804831D-01  4.957D-03
    4.050000   -2.0892390451290D-01  4.887D-03
    4.075000   -2.1011243910389D-01  4.818D-03
    4.100000   -2.1135010290338D-01  4.751D-03
    4.125000   -2.1263676733242D-01  4.684D-03
    4.150000   -2.1397225346436D-01  4.618D-03
    4.175000   -2.1535633139227D-01  4.554D-03
    4.200000   -2.1678871965235D-01  4.490D-03
    4.225000   -2.1826908470512D-01  4.428D-03
    4.250000   -2.1979704047606D-01  4.367D-03
    4.275000   -2.2137214795750D-01  4.307D-03
    4.300000   -2.2299391487318D-01  4.248D-03
    4.325000   -2.2466179540722D-01  4.189D-03
    4.350000   -2.2637518999866D-01  4.133D-03
    4.375000   -2.2813344520314D-01  4.077D-03
    4.400000   -2.2993585362289D-01  4.022D-03
    4.425000   -2.3178165390610D-01  3.968D-03
    4.450000   -2.3367003081687D-01  3.915D-03
    4.475000   -2.3560011537659D-01  3.863D-03
    4.500000   -2.3757098507756D-01  3.812D-03
    4.525000   -2.3958166416976D-01  3.761D-03
    4.550000   -2.4163112402112D-01  3.712D-03
    4.575000   -2.4371828355202D-01  3.664D-03
    4.600000   -2.4584200974419D-01  3.616D-03
    4.625000   -2.4800111822453D-01  3.569D-03
    4.650000   -2.5019437392362D-01  3.523D-03
    4.675000   -2.5242049180925D-01  3.478D-03
    4.700000   -2.5467813769458D-01  3.434D-03
    4.725000   -2.5696592912088D-01  3.390D-03
    4.750000   -2.5928243631423D-01  3.347D-03
    4.775000   -2.6162618321580D-01  3.304D-03
    4.800000   -2.6399564858502D-01  3.262D-03
    4.825000   -2.6638926717466D-01  3.221D-03
    4.850000   -2.6880543097718D-01  3.180D-03
    4.875000   -2.7124249054093D-01  3.140D-03
    4.900000   -2.7369875635521D-01  3.100D-03
    4.925000   -2.7617250030269D-01  3.060D-03
    4.950000   -2.7866195717783D-01  3.021D-03
    4.975000   -2.8116532626950D-01  2.983D-03
    5.000000   -2.8368077300612D-01  2.945D-03
    5.025000   -2.8620643066148D-01  2.907D-03
    5.050000   -2.8874040211910D-01  2.869D-03
    5.075000   -2.9128076169300D-01  2.832D-03
    5.100000   -2.9382555700269D-01  2.795D-03
    5.125000   -2.9637281089984D-01  2.758D-03
    5.150000   -2.9892052344421D-01  2.722D-03
    5.175000   -3.0146667392621D-01  2.686D-03
    5.200000   -3.0400922293326D-01  2.650D-03
    5.225000   -3.0654611445721D-01  2.614D-03
    5.250000   -3.0907527803976D-01  2.579D-03
    5.275000   -3.1159463095299D-01  2.543D-03
    5.300000   -3.1410208041170D-01  2.508D-03
    5.325000   -3.1659552581444D-01  2.473D-03
    5.350000   -3.1907286100993D-01  2.439D-03
    5.375000   -3.2153197658547D-01  2.404D-03
    5.400000   -3.2397076217395D-01  2.370D-03
    5.425000   -3.2638710877589D-01  2.336D-03
    5.450000   -3.2877891109309D-01  2.302D-03
    5.475000   -3.3114406987016D-01  2.268D-03
    5.500000   -3.3348049424040D-01  2.234D-03
    5.525000   -3.3578610407239D-01  2.201D-03
    5.550000   -3.3805883231347D-01  2.168D-03
    5.575000   -3.4029662732659D-01  2.135D-03
    5.600000   -3.4249745521672D-01  2.103D-03
    5.625000   -3.4465930214317D-01  2.070D-03
    5.650000   -3.4678017661407D-01  2.038D-03
    5.675000   -3.4885811175939D-01  2.007D-03
    5.700000   -3.5089116757886D-01  1.975D-03
    5.725000   -3.5287743316112D-01  1.944D-03
    5.750000   -3.5481502887055D-01  1.914D-03
    5.775000   -3.5670210849826D-01  1.883D-03
    5.800000   -3.5853686137376D-01  1.854D-03
    5.825000   -3.6031751443397D-01  1.824D-03
    5.850000   -3.6204233424603D-01  1.796D-03
    5.875000   -3.6370962898103D-01  1.767D-03
    5.900000   -3.6531775033503D-01  1.740D-03
    5.925000   -3.6686509539474D-01  1.712D-03
    5.950000   -3.6835010844461D-01  1.686D-03
    5.975000   -3.6977128271253D-01  1.660D-03
    6.000000   -3.7112716205145D-01  1.635D-03
    6.025000   -3.7241634255434D-01  1.610D-03
    6.050000   -3.7363747409976D-01  1.586D-03
    6.075000   -3.7478926182598D-01  1.563D-03
    6.100000   -3.7587046753121D-01  1.541D-03
    6.125000   -3.7687991099791D-01  1.520D-03
    6.150000   -3.7781647123934D-01  1.499D-03
    6.175000   -3.7867908766638D-01  1.479D-03
    6.200000   -3.7946676117314D-01  1.460D-03
    6.225000   -3.8017855513985D-01  1.442D-03
    6.250000   -3.8081359635170D-01  1.426D-03
    6.275000   -3.8137107583247D-01  1.410D-03
    6.300000   -3.8185024959200D-01  1.395D-03
    6.325000   -3.8225043928671D-01  1.381D-03
    6.350000   -3.8257103279244D-01  1.368D-03
    6.375000   -3.8281148468922D-01  1.356D-03
    6.400000   -3.8297131665759D-01  1.345D-03
    6.425000   -3.8305011778644D-01  1.335D-03
    6.450000   -3.8304754479227D-01  1.326D-03
    6.475000   -3.8296332215013D-01  1.318D-03
    6.500000   -3.8279724213668D-01  1.312D-03
    6.525000   -3.8254916478574D-01  1.306D-03
    6.550000   -3.8221901775717D-01  1.302D-03
    6.575000   -3.8180679611982D-01  1.298D-03
    6.600000   -3.8131256204963D-01  1.296D-03
    6.625000   -3.8073644444405D-01  1.294D-03
    6.650000   -3.8007863845394D-01  1.294D-03
    6.675000   -3.7933940493461D-01  1.294D-03
    6.700000   -3.7851906981745D-01  1.296D-03
    6.725000   -3.7761802340385D-01  1.299D-03
    6.750000   -3.7663671958345D-01  1.302D-03
    6.775000   -3.7557567497842D-01  1.306D-03
    6.800000   -3.7443546801607D-01  1.312D-03
    6.825000   -3.7321673793197D-01  1.318D-03
    6.850000   -3.7192018370576D-01  1.325D-03
    6.875000   -3.7054656293218D-01  1.333D-03
    6.900000   -3.6909669062981D-01  1.342D-03
    6.925000   -3.6757143798999D-01  1.351D-03
    6.950000   -3.6597173106877D-01  1.361D-03
    6.975000   -3.6429854942439D-01  1.373D-03
    7.000000   -3.6255292470331D-01  1.384D-03
    7.025000   -3.6073593917747D-01  1.397D-03
    7.050000   -3.5884872423578D-01  1.410D-03
    7.075000   -3.5689245883270D-01  1.425D-03
    7.100000   -3.5486836789697D-01  1.439D-03
    7.125000   -3.5277772070346D-01  1.455D-03
    7.150000   -3.5062182921110D-01  1.471D-03
    7.175000   -3.4840204637001D-01  1.488D-03
    7.200000   -3.4611976440087D-01  1.506D-03
    7.225000   -3.4377641304945D-01  1.524D-03
    7.250000   -3.4137345781951D-01  1.543D-03
    7.275000   -3.3891239818692D-01  1.562D-03
    7.300000   -3.3639476579814D-01  1.582D-03
    7.325000   -3.3382212265590D-01  1.603D-03
    7.350000   -3.3119605929511D-01  1.625D-03
    7.375000   -3.2851819295183D-01  1.647D-03
    7.400000   -3.2579016572826D-01  1.670D-03
    7.425000   -3.2301364275634D-01  1.693D-03
    7.450000   -3.2019031036303D-01  1.717D-03
    7.475000   -3.1732187423957D-01  1.742D-03
    7.500000   -3.1441005761774D-01  1.767D-03
    7.525000   -3.1145659945530D-01  1.793D-03
    7.550000   -3.0846325263346D-01  1.820D-03
    7.575000   -3.0543178216844D-01  1.847D-03
    7.600000   -3.0236396343969D-01  1.875D-03
    7.625000   -2.9926158043695D-01  1.903D-03
    7.650000   -2.9612642402824D-01  1.932D-03
    7.675000   -2.9296029025093D-01  1.962D-03
    7.700000   -2.8976497862787D-01  1.992D-03
    7.725000   -2.8654229051039D-01  2.023D-03
    7.750000   -2.8329402745011D-01  2.054D-03
    7.775000   -2.8002198960107D-01  2.086D-03
    7.800000   -2.7672797415395D-01  2.119D-03
    7.825000   -2.7341377380384D-01  2.152D-03
    7.850000   -2.7008117525292D-01  2.185D-03
    7.875000   -2.6673195774943D-01  2.220D-03
    7.900000   -2.6336789166409D-01  2.254D-03
    7.925000   -2.5999073710515D-01  2.289D-03
    7.950000   -2.5660224257307D-01  2.325D-03
    7.975000   -2.5320414365565D-01  2.361D-03
    8.000000   -2.4979816176472D-01  2.398D-03
    8.025000   -2.4638600291474D-01  2.435D-03
    8.050000   -2.4296935654433D-01  2.472D-03
    8.075000   -2.3954989438103D-01  2.510D-03
    8.100000   -2.3612926934985D-01  2.548D-03
    8.125000   -2.3270911452600D-01  2.587D-03
    8.150000   -2.2929104213203D-01  2.626D-03
    8.175000   -2.2587664257972D-01  2.665D-03
    8.200000   -2.2246748355663D-01  2.705D-03
    8.225000   -2.1906510915759D-01  2.745D-03
    8.250000   -2.1567103906095D-01  2.786D-03
    8.275000   -2.1228676774955D-01  2.826D-03
    8.300000   -2.0891376377624D-01  2.867D-03
    8.325000   -2.0555346907366D-01  2.908D-03
    8.350000   -2.0220729830807D-01  2.950D-03
    8.375000   -1.9887663827679D-01  2.991D-03
    8.400000   -1.9556284734878D-01  3.033D-03
    8.425000   -1.9226725494806D-01  3.075D-03
    8.450000   -1.8899116107918D-01  3.117D-03
    8.475000   -1.8573583589440D-01  3.160D-03
    8.500000   -1.8250251930173D-01  3.202D-03
    8.525000   -1.7929242061336D-01  3.245D-03
    8.550000   -1.7610671823352D-01  3.287D-03
    8.575000   -1.7294655938530D-01  3.330D-03
    8.600000   -1.6981305987530D-01  3.373D-03
    8.625000   -1.6670730389559D-01  3.415D-03
    8.650000   -1.6363034386192D-01  3.458D-03
    8.675000   -1.6058320028742D-01  3.501D-03
    8.700000   -1.5756686169070D-01  3.544D-03
    8.725000   -1.5458228453769D-01  3.586D-03
    8.750000   -1.5163039321599D-01  3.629D-03
    8.775000   -1.4871208004093D-01  3.672D-03
    8.800000   -1.4582820529232D-01  3.714D-03
    8.825000   -1.4297959728089D-01  3.756D-03
    8.850000   -1.4016705244332D-01  3.799D-03
    8.875000   -1.3739133546506D-01  3.841D-03
    8.900000   -1.3465317942968D-01  3.883D-03
    8.925000   -1.3195328599395D-01  3.925D-03
    8.950000   -1.2929232558740D-01  3.966D-03
    8.975000   -1.2667093763554D-01  4.008D-03
    9.000000   -1.2408973080562D-01  4.049D-03
    9.025000   -1.2154928327392D-01  4.090D-03
    9.050000   -1.1905014301354D-01  4.131D-03
    9.075000   -1.1659282810175D-01  4.171D-03
    9.100000   -1.1417782704588D-01  4.211D-03
    9.125000   -1.1180559912675D-01  4.251D-03
    9.150000   -1.0947657475861D-01  4.291D-03
    9.175000   -1.0719115586482D-01  4.330D-03
    9.200000   -1.0494971626808D-01  4.370D-03
    9.225000   -1.0275260209449D-01  4.408D-03
    9.250000   -1.0060013219036D-01  4.447D-03
    9.275000   -9.8492598551011D-02  4.485D-03
    9.300000   -9.6430266760587D-02  4.522D-03
    9.325000   -9.4413376442056D-02  4.560D-03
    9.350000   -9.2442141716556D-02  4.597D-03
    9.375000   -9.0516751671272D-02  4.633D-03
    9.400000   -8.8637370835011D-02  4.670D-03
    9.425000   -8.6804139660721D-02  4.705D-03
    9.450000   -8.5017175014190D-02  4.741D-03
    9.475000   -8.3276570668159D-02  4.776D-03
    9.500000   -8.1582397801176D-02  4.810D-03
    9.525000   -7.9934705500446D-02  4.845D-03
    9.550000   -7.8333521268045D-02  4.878D-03
    9.575000   -7.6778851529819D-02  4.912D-03
    9.600000   -7.5270682146346D-02  4.944D-03
    9.625000   -7.3808978925365D-02  4.977D-03
    9.650000   -7.2393688135068D-02  5.009D-03
    9.675000   -7.1024737017708D-02  5.040D-03
    9.700000   -6.9702034302975D-02  5.071D-03
    9.725000   -6.8425470720621D-02  5.102D-03
    9.750000   -6.7194919511844D-02  5.132D-03
    9.775000   -6.6010236938947D-02  5.161D-03
    9.800000   -6.4871262792828D-02  5.190D-03
    9.825000   -6.3777820897856D-02  5.219D-03
    9.850000   -6.2729719613736D-02  5.247D-03
    9.875000   -6.1726752333958D-02  5.275D-03
    9.900000   -6.0768697980470D-02  5.302D-03
    9.925000   -5.9855321494213D-02  5.328D-03
    9.950000   -5.8986374321198D-02  5.355D-03
    9.975000   -5.8161594893802D-02  5.380D-03
   10.000000   -5.7380709106993D-02  5.405D-03
   10.025000   -5.6643430789210D-02  5.430D-03
   10.050000   -5.5949462167636D-02  5.454D-03
   10.075000   -5.5298494327624D-02  5.478D-03
   10.100000   -5.4690207666058D-02  5.501D-03
   10.125000   -5.4124272338425D-02  5.524D-03
   10.150000   -5.3600348699434D-02  5.546D-03
   10.175000   -5.3118087736975D-02  5.567D-03
   10.200000   -5.2677131499279D-02  5.589D-03
   10.225000   -5.2277113515129D-02  5.609D-03
   10.250000   -5.1917659206976D-02  5.629D-03
   10.275000   -5.1598386296862D-02  5.649D-03
   10.300000   -5.1318905205032D-02  5.668D-03
   10.325000   -5.1078819441136D-02  5.687D-03
   10.350000   -5.0877725987965D-02  5.705D-03
   10.375000   -5.0715215677623D-02  5.723D-03
   10.400000   -5.0590873560094D-02  5.740D-03
   10.425000   -5.0504279264163D-02  5.757D-03
   10.450000   -5.0455007350636D-02  5.773D-03
   10.475000   -5.0442627657849D-02  5.789D-03
   10.500000   -5.0466705639442D-02  5.804D-03
   10.525000   -5.0526802694396D-02  5.819D-03
   10.550000   -5.0622476489327D-02  5.833D-03
   10.575000   -5.0753281273050D-02  5.847D-03
   10.600000   -5.0918768183438D-02  5.860D-03
   10.625000   -5.1118485546584D-02  5.873D-03
   10.650000   -5.1351979168316D-02  5.886D-03
   10.675000   -5.1618792618092D-02  5.898D-03
   10.700000   -5.1918467505325D-02  5.909D-03
   10.725000   -5.2250543748188D-02  5.920D-03
   10.750000   -5.2614559834956D-02  5.931D-03
   10.775000   -5.3010053077949D-02  5.941D-03
   10.800000   -5.3436559860139D-02  5.951D-03
   10.825000   -5.3893615874495D-02  5.960D-03
   10.850000   -5.4380756356145D-02  5.969D-03
   10.875000   -5.4897516307430D-02  5.978D-03
   10.900000   -5.5443430715939D-02  5.986D-03
   10.925000   -5.6018034765607D-02  5.993D-03
   10.950000   -5.6620864040971D-02  6.001D-03
   10.975000   -5.7251454724679D-02  6.007D-03
   11.000000   -5.7909343788340D-02  6.014D-03
   11.025000   -5.8594069176824D-02  6.020D-03
   11.050000   -5.9305169986108D-02  6.025D-03
   11.075000   -6.0042186634767D-02  6.031D-03
   11.100000   -6.0804661029224D-02  6.035D-03
   11.125000   -6.1592136722859D-02  6.040D-03
   11.150000   -6.2404159069084D-02  6.044D-03
   11.175000   -6.3240275368497D-02  6.048D-03
   11.200000   -6.4100035010220D-02  6.051D-03
   11.225000   -6.4982989607538D-02  6.054D-03
   11.250000   -6.5888693127944D-02  6.056D-03
   11.275000   -6.6816702017702D-02  6.059D-03
   11.300000   -6.7766575321052D-02  6.060D-03
   11.325000   -6.8737874794144D-02  6.062D-03
   11.350000   -6.9730165013848D-02  6.063D-03
   11.375000   -7.0743013481515D-02  6.064D-03
   11.400000   -7.1775990721834D-02  6.065D-03
   11.425000   -7.2828670376876D-02  6.065D-03
   11.450000   -7.3900629295440D-02  6.065D-03
   11.475000   -7.4991447617826D-02  6.064D-03
   11.500000   -7.6100708856117D-02  6.063D-03
   11.525000   -7.7227999970118D-02  6.062D-03
   11.550000   -7.8372911439016D-02  6.061D-03
   11.575000   -7.9535037328912D-02  6.059D-03
   11.600000   -8.0713975356304D-02  6.057D-03
   11.625000   -8.1909326947632D-02  6.055D-03
   11.650000   -8.3120697295003D-02  6.052D-03
   11.675000   -8.4347695408177D-02  6.050D-03
   11.700000   -8.5589934162946D-02  6.046D-03
   11.725000   -8.6847030345974D-02  6.043D-03
   11.750000   -8.8118604696228D-02  6.039D-03
   11.775000   -8.9404281943076D-02  6.036D-03
   11.800000   -9.0703690841167D-02  6.031D-03
   11.825000   -9.2016464202178D-02  6.027D-03
   11.850000   -9.3342238923522D-02  6.022D-03
   11.875000   -9.4680656014116D-02  6.017D-03
   11.900000   -9.6031360617300D-02  6.012D-03
   11.925000   -9.7394002030994D-02  6.007D-03
   11.950000   -9.8768233725178D-02  6.001D-03
   11.975000   -1.0015371335679D-01  5.995D-03
   12.000000   -1.0155010278213D-01  5.989D-03
   12.025000   -1.0295706806684D-01  5.983D-03
   12.050000   -1.0437427949354D-01  5.977D-03
   12.075000   -1.0580141156722D-01  5.970D-03
   12.100000   -1.0723814301848D-01  5.963D-03
   12.125000   -1.0868415680465D-01  5.956D-03
   12.150000   -1.1013914010887D-01  5.949D-03
   12.175000   -1.1160278433723D-01  5.941D-03
   12.200000   -1.1307478511410D-01  5.933D-03
   12.225000   -1.1455484227559D-01  5.926D-03
   12.250000   -1.1604265986124D-01  5.917D-03
   12.275000   -1.1753794610418D-01  5.909D-03
   12.300000   -1.1904041341953D-01  5.901D-03
   12.325000   -1.2054977839140D-01  5.892D-03
   12.350000   -1.2206576175834D-01  5.884D-03
   12.375000   -1.2358808839740D-01  5.875D-03
   12.400000   -1.2511648730683D-01  5.866D-03
   12.425000   -1.2665069158755D-01  5.856D-03
   12.450000   -1.2819043842329D-01  5.847D-03
   12.475000   -1.2973546905963D-01  5.838D-03
   12.500000   -1.3128552878189D-01  5.828D-03
   12.525000   -1.3284036689194D-01  5.818D-03
   12.550000   -1.3439973668402D-01  5.808D-03
   12.575000   -1.3596339541956D-01  5.798D-03
   12.600000   -1.3753110430109D-01  5.788D-03
   12.625000   -1.3910262844533D-01  5.778D-03
   12.650000   -1.4067773685536D-01  5.767D-03
   12.675000   -1.4225620239207D-01  5.757D-03
   12.700000   -1.4383780174490D-01  5.746D-03
   12.725000   -1.4542231540178D-01  5.735D-03
   12.750000   -1.4700952761856D-01  5.724D-03
   12.775000   -1.4859922638770D-01  5.713D-03
   12.800000   -1.5019120340645D-01  5.702D-03
   12.825000   -1.5178525404449D-01  5.691D-03
   12.850000   -1.5338117731105D-01  5.680D-03
   12.875000   -1.5497877582155D-01  5.669D-03
   12.900000   -1.5657785576386D-01  5.657D-03
   12.925000   -1.5817822686415D-01  5.646D-03
   12.950000   -1.5977970235227D-01  5.634D-03
   12.975000   -1.6138209892698D-01  5.622D-03
   13.000000   -1.6298523672070D-01  5.610D-03
   13.025000   -1.6458893926408D-01  5.599D-03
   13.050000   -1.6619303345030D-01  5.587D-03
   13.075000   -1.6779734949912D-01  5.575D-03
   13.100000   -1.6940172092080D-01  5.562D-03
   13.125000   -1.7100598447974D-01  5.550D-03
   13.150000   -1.7260998015809D-01  5.538D-03
   13.175000   -1.7421355111916D-01  5.526D-03
   13.200000   -1.7581654367076D-01  5.514D-03
   13.225000   -1.7741880722844D-01  5.501D-03
   13.250000   -1.7902019427868D-01  5.489D-03
   13.275000   -1.8062056034209D-01  5.476D-03
   13.300000   -1.8221976393646D-01  5.464D-03
   13.325000   -1.8381766653997D-01  5.451D-03
   13.350000   -1.8541413255429D-01  5.438D-03
   13.375000   -1.8700902926780D-01  5.426D-03
   13.400000   -1.8860222681880D-01  5.413D-03
   13.425000   -1.9019359815878D-01  5.400D-03
   13.450000   -1.9178301901589D-01  5.388D-03
   13.475000   -1.9337036785831D-01  5.375D-03
   13.500000   -1.9495552585790D-01  5.362D-03
   13.525000   -1.9653837685389D-01  5.349D-03
   13.550000   -1.9811880731671D-01  5.336D-03
   13.575000   -1.9969670631199D-01  5.323D-03
   13.600000   -2.0127196546469D-01  5.310D-03
   13.625000   -2.0284447892344D-01  5.297D-03
   13.650000   -2.0441414332503D-01  5.284D-03
   13.675000   -2.0598085775907D-01  5.271D-03
   13.700000   -2.0754452373288D-01  5.258D-03
   13.725000   -2.0910504513663D-01  5.245D-03
   13.750000   -2.1066232820856D-01  5.232D-03
   13.775000   -2.1221628150061D-01  5.219D-03
   13.800000   -2.1376681584409D-01  5.206D-03
   13.825000   -2.1531384431576D-01  5.193D-03
   13.850000   -2.1685728220404D-01  5.180D-03
   13.875000   -2.1839704697551D-01  5.167D-03
   13.900000   -2.1993305824170D-01  5.154D-03
   13.925000   -2.2146523772606D-01  5.140D-03
   13.950000   -2.2299350923133D-01  5.127D-03
   13.975000   -2.2451779860702D-01  5.114D-03
   14.000000   -2.2603803371732D-01  5.101D-03
   14.025000   -2.2755414440921D-01  5.088D-03
   14.050000   -2.2906606248086D-01  5.075D-03
   14.075000   -2.3057372165035D-01  5.062D-03
   14.100000   -2.3207705752466D-01  5.049D-03
   14.125000   -2.3357600756899D-01  5.036D-03
   14.150000   -2.3507051107630D-01  5.023D-03
   14.175000   -2.3656050913729D-01  5.010D-03
   14.200000   -2.3804594461052D-01  4.997D-03
   14.225000   -2.3952676209296D-01  4.984D-03
   14.250000   -2.4100290789082D-01  4.971D-03
   14.275000   -2.4247432999064D-01  4.958D-03
   14.300000   -2.4394097803073D-01  4.945D-03
   14.325000   -2.4540280327296D-01  4.932D-03
   14.350000   -2.4685975857478D-01  4.919D-03
   14.375000   -2.4831179836161D-01  4.906D-03
   14.400000   -2.4975887859953D-01  4.893D-03
   14.425000   -2.5120095676830D-01  4.880D-03
   14.450000   -2.5263799183466D-01  4.867D-03
   14.475000   -2.5406994422596D-01  4.854D-03
   14.500000   -2.5549677580415D-01  4.841D-03
   14.525000   -2.5691844984001D-01  4.829D-03
   14.550000   -2.5833493098774D-01  4.816D-03
   14.575000   -2.5974618525984D-01  4.803D-03
   14.600000   -2.6115218000237D-01  4.791D-03
   14.625000   -2.6255288387038D-01  4.778D-03
   14.650000   -2.6394826680384D-01  4.765D-03
   14.675000   -2.6533830000369D-01  4.753D-03
   14.700000   -2.6672295590836D-01  4.740D-03
   14.725000   -2.6810220817050D-01  4.728D-03
   14.750000   -2.6947603163403D-01  4.715D-03
   14.775000   -2.7084440231153D-01  4.703D-03
   14.800000   -2.7220729736193D-01  4.690D-03
   14.825000   -2.7356469506844D-01  4.678D-03
   14.850000   -2.7491657481687D-01  4.665D-03
   14.875000   -2.7626291707418D-01  4.653D-03
   14.900000   -2.7760370336736D-01  4.641D-03
   14.925000   -2.7893891626260D-01  4.628D-03
   14.950000   -2.8026853934474D-01  4.616D-03
   14.975000   -2.8159255719705D-01  4.604D-03
   15.000000   -2.8291095538120D-01  4.592D-03
   15.025000   -2.8422372041768D-01  4.580D-03
   15.050000   -2.8553083976633D-01  4.568D-03
   15.075000   -2.8683230180727D-01  4.556D-03
   15.100000   -2.8812809582208D-01  4.544D-03
   15.125000   -2.8941821197522D-01  4.532D-03
   15.150000   -2.9070264129579D-01  4.520D-03
   15.175000   -2.9198137565948D-01  4.508D-03
   15.200000   -2.9325440777089D-01  4.496D-03
   15.225000   -2.9452173114604D-01  4.484D-03
   15.250000   -2.9578334009517D-01  4.473D-03
   15.275000   -2.9703922970581D-01  4.461D-03
   15.300000   -2.9828939582610D-01  4.449D-03
   15.325000   -2.9953383504838D-01  4.438D-03
   15.350000   -3.0077254469302D-01  4.426D-03
   15.375000   -3.0200552279251D-01  4.415D-03
   15.400000   -3.0323276807580D-01  4.403D-03
   15.425000   -3.0445427995291D-01  4.392D-03
   15.450000   -3.0567005849970D-01  4.380D-03
   15.475000   -3.0688010444303D-01  4.369D-03
   15.500000   -3.0808441914600D-01  4.358D-03
   15.525000   -3.0928300459353D-01  4.347D-03
   15.550000   -3.1047586337816D-01  4.335D-03
   15.575000   -3.1166299868602D-01  4.324D-03
   15.600000   -3.1284441428312D-01  4.313D-03
   15.625000   -3.1402011450181D-01  4.302D-03
   15.650000   -3.1519010422744D-01  4.291D-03
   15.675000   -3.1635438888533D-01  4.280D-03
   15.700000   -3.1751297442784D-01  4.269D-03
   15.725000   -3.1866586732178D-01  4.258D-03
   15.750000   -3.1981307453591D-01  4.248D-03
   15.775000   -3.2095460352879D-01  4.237D-03
   15.800000   -3.2209046223666D-01  4.226D-03
   15.825000   -3.2322065906170D-01  4.216D-03
   15.850000   -3.2434520286038D-01  4.205D-03
   15.875000   -3.2546410293207D-01  4.194D-03
   15.900000   -3.2657736900779D-01  4.184D-03
   15.925000   -3.2768501123922D-01  4.173D-03
   15.950000   -3.2878704018784D-01  4.163D-03
   15.975000   -3.2988346681431D-01  4.153D-03
   16.000000   -3.3097430246800D-01  4.142D-03
   16.025000   -3.3205955887675D-01  4.132D-03