
variables = "r", "UA(r)", "Uncertainty"
zone T = "State 1 UA(r)  66N09p6q2Rf4_8      "

    2.200000   -1.6595610574079D+00  9.310D-01
    2.225000   -1.6571047463218D+00  9.296D-01
    2.250000   -1.6545143961358D+00  9.282D-01
    2.275000   -1.6517848607655D+00  9.266D-01
    2.300000   -1.6489109254742D+00  9.250D-01
    2.325000   -1.6458873148267D+00  9.233D-01
    2.350000   -1.6427087013614D+00  9.215D-01
    2.375000   -1.6393697149981D+00  9.197D-01
    2.400000   -1.6358649531942D+00  9.177D-01
    2.425000   -1.6321889918615D+00  9.156D-01
    2.450000   -1.6283363970500D+00  9.135D-01
    2.475000   -1.6243017374026D+00  9.112D-01
    2.500000   -1.6200795973783D+00  9.089D-01
    2.525000   -1.6156645912393D+00  9.064D-01
    2.550000   -1.6110513777881D+00  9.038D-01
    2.575000   -1.6062346758396D+00  9.011D-01
    2.600000   -1.6012092804030D+00  8.983D-01
    2.625000   -1.5959700795435D+00  8.953D-01
    2.650000   -1.5905120718876D+00  8.923D-01
    2.675000   -1.5848303847272D+00  8.891D-01
    2.700000   -1.5789202926704D+00  8.858D-01
    2.725000   -1.5727772367810D+00  8.823D-01
    2.750000   -1.5663968441376D+00  8.787D-01
    2.775000   -1.5597749477388D+00  8.750D-01
    2.800000   -1.5529076066718D+00  8.712D-01
    2.825000   -1.5457911264519D+00  8.672D-01
    2.850000   -1.5384220794373D+00  8.630D-01
    2.875000   -1.5307973252118D+00  8.588D-01
    2.900000   -1.5229140308249D+00  8.543D-01
    2.925000   -1.5147696907697D+00  8.498D-01
    2.950000   -1.5063621465758D+00  8.451D-01
    2.975000   -1.4976896058873D+00  8.402D-01
    3.000000   -1.4887506608945D+00  8.352D-01
    3.025000   -1.4795443059832D+00  8.300D-01
    3.050000   -1.4700699544638D+00  8.247D-01
    3.075000   -1.4603274542430D+00  8.192D-01
    3.100000   -1.4503171023013D+00  8.136D-01
    3.125000   -1.4400396578402D+00  8.079D-01
    3.150000   -1.4294963539686D+00  8.019D-01
    3.175000   -1.4186889078015D+00  7.959D-01
    3.200000   -1.4076195288521D+00  7.897D-01
    3.225000   -1.3962909256048D+00  7.833D-01
    3.250000   -1.3847063101677D+00  7.768D-01
    3.275000   -1.3728694009137D+00  7.702D-01
    3.300000   -1.3607844230318D+00  7.634D-01
    3.325000   -1.3484561069245D+00  7.565D-01
    3.350000   -1.3358896844007D+00  7.494D-01
    3.375000   -1.3230908826318D+00  7.422D-01
    3.400000   -1.3100659158542D+00  7.349D-01
    3.425000   -1.2968214748180D+00  7.275D-01
    3.450000   -1.2833647140025D+00  7.200D-01
    3.475000   -1.2697032366349D+00  7.123D-01
    3.500000   -1.2558450775684D+00  7.045D-01
    3.525000   -1.2417986840930D+00  6.966D-01
    3.550000   -1.2275728947716D+00  6.887D-01
    3.575000   -1.2131769164091D+00  6.806D-01
    3.600000   -1.1986202992796D+00  6.724D-01
    3.625000   -1.1839129107527D+00  6.642D-01
    3.650000   -1.1690649074697D+00  6.558D-01
    3.675000   -1.1540867062386D+00  6.474D-01
    3.700000   -1.1389889538216D+00  6.390D-01
    3.725000   -1.1237824958008D+00  6.304D-01
    3.750000   -1.1084783447141D+00  6.218D-01
    3.775000   -1.0930876476566D+00  6.132D-01
    3.800000   -1.0776216535463D+00  6.045D-01
    3.825000   -1.0620916802553D+00  5.958D-01
    3.850000   -1.0465090818022D+00  5.871D-01
    3.875000   -1.0308852158016D+00  5.783D-01
    3.900000   -1.0152314113602D+00  5.695D-01
    3.925000   -9.9955893760041D-01  5.607D-01
    3.950000   -9.8387897298554D-01  5.519D-01
    3.975000   -9.6820257560943D-01  5.432D-01
    4.000000   -9.5254065460109D-01  5.344D-01
    4.025000   -9.3690394278319D-01  5.256D-01
    4.050000   -9.2130297070857D-01  5.168D-01
    4.075000   -9.0574804218490D-01  5.081D-01
    4.100000   -8.9024921138218D-01  4.994D-01
    4.125000   -8.7481626160250D-01  4.908D-01
    4.150000   -8.5945868577589D-01  4.822D-01
    4.175000   -8.4418566873069D-01  4.736D-01
    4.200000   -8.2900607127128D-01  4.651D-01
    4.225000   -8.1392841608164D-01  4.566D-01
    4.250000   -7.9896087545854D-01  4.482D-01
    4.275000   -7.8411126086480D-01  4.399D-01
    4.300000   -7.6938701428024D-01  4.316D-01
    4.325000   -7.5479520131609D-01  4.234D-01
    4.350000   -7.4034250604791D-01  4.153D-01
    4.375000   -7.2603522751209D-01  4.073D-01
    4.400000   -7.1187927780249D-01  3.994D-01
    4.425000   -6.9788018169621D-01  3.915D-01
    4.450000   -6.8404307773082D-01  3.837D-01
    4.475000   -6.7037272065040D-01  3.761D-01
    4.500000   -6.5687348513318D-01  3.685D-01
    4.525000   -6.4354937071060D-01  3.610D-01
    4.550000   -6.3040400778523D-01  3.537D-01
    4.575000   -6.1744066465398D-01  3.464D-01
    4.600000   -6.0466225544252D-01  3.392D-01
    4.625000   -5.9207134885724D-01  3.321D-01
    4.650000   -5.7967017766247D-01  3.252D-01
    4.675000   -5.6746064879244D-01  3.183D-01
    4.700000   -5.5544435400982D-01  3.116D-01
    4.725000   -5.4362258102587D-01  3.050D-01
    4.750000   -5.3199632500039D-01  2.984D-01
    4.775000   -5.2056630034365D-01  2.920D-01
    4.800000   -5.0933295274627D-01  2.857D-01
    4.825000   -4.9829647136764D-01  2.795D-01
    4.850000   -4.8745680111763D-01  2.735D-01
    4.875000   -4.7681365497091D-01  2.675D-01
    4.900000   -4.6636652625810D-01  2.616D-01
    4.925000   -4.5611470088216D-01  2.559D-01
    4.950000   -4.4605726941335D-01  2.502D-01
    4.975000   -4.3619313902027D-01  2.447D-01
    5.000000   -4.2652104519933D-01  2.393D-01
    5.025000   -4.1703956326861D-01  2.340D-01
    5.050000   -4.0774711959689D-01  2.287D-01
    5.075000   -3.9864200254185D-01  2.236D-01
    5.100000   -3.8972237307573D-01  2.186D-01
    5.125000   -3.8098627507989D-01  2.137D-01
    5.150000   -3.7243164529318D-01  2.089D-01
    5.175000   -3.6405632290205D-01  2.042D-01
    5.200000   -3.5585805876324D-01  1.996D-01
    5.225000   -3.4783452425250D-01  1.951D-01
    5.250000   -3.3998331973526D-01  1.907D-01
    5.275000   -3.3230198265735D-01  1.864D-01
    5.300000   -3.2478799525590D-01  1.822D-01
    5.325000   -3.1743879189234D-01  1.781D-01
    5.350000   -3.1025176601112D-01  1.740D-01
    5.375000   -3.0322427672906D-01  1.701D-01
    5.400000   -2.9635365506165D-01  1.663D-01
    5.425000   -2.8963720979366D-01  1.625D-01
    5.450000   -2.8307223300234D-01  1.588D-01
    5.475000   -2.7665600524229D-01  1.552D-01
    5.500000   -2.7038580040188D-01  1.517D-01
    5.525000   -2.6425889024145D-01  1.482D-01
    5.550000   -2.5827254862410D-01  1.449D-01
    5.575000   -2.5242405545015D-01  1.416D-01
    5.600000   -2.4671070030664D-01  1.384D-01
    5.625000   -2.4112978584325D-01  1.353D-01
    5.650000   -2.3567863088639D-01  1.322D-01
    5.675000   -2.3035457330280D-01  1.292D-01
    5.700000   -2.2515497262443D-01  1.263D-01
    5.725000   -2.2007721244571D-01  1.235D-01
    5.750000   -2.1511870260485D-01  1.207D-01
    5.775000   -2.1027688115987D-01  1.180D-01
    5.800000   -2.0554921617043D-01  1.153D-01
    5.825000   -2.0093320729602D-01  1.127D-01
    5.850000   -1.9642638722066D-01  1.102D-01
    5.875000   -1.9202632291435D-01  1.077D-01
    5.900000   -1.8773061674077D-01  1.053D-01
    5.925000   -1.8353690742059D-01  1.030D-01
    5.950000   -1.7944287085957D-01  1.007D-01
    5.975000   -1.7544622084987D-01  9.842D-02
    6.000000   -1.7154470965318D-01  9.624D-02
    6.025000   -1.6773612847329D-01  9.410D-02
    6.050000   -1.6401830782610D-01  9.201D-02
    6.075000   -1.6038911781399D-01  8.998D-02
    6.100000   -1.5684646831178D-01  8.799D-02
    6.125000   -1.5338830907061D-01  8.605D-02
    6.150000   -1.5001262974625D-01  8.416D-02
    6.175000   -1.4671745985752D-01  8.231D-02
    6.200000   -1.4350086868073D-01  8.050D-02
    6.225000   -1.4036096508516D-01  7.874D-02
    6.250000   -1.3729589731488D-01  7.702D-02
    6.275000   -1.3430385272141D-01  7.534D-02
    6.300000   -1.3138305745189D-01  7.371D-02
    6.325000   -1.2853177609678D-01  7.211D-02
    6.350000   -1.2574831130114D-01  7.054D-02
    6.375000   -1.2303100334315D-01  6.902D-02
    6.400000   -1.2037822968335D-01  6.753D-02
    6.425000   -1.1778840448779D-01  6.608D-02
    6.450000   -1.1525997812823D-01  6.466D-02
    6.475000   -1.1279143666203D-01  6.328D-02
    6.500000   -1.1038130129458D-01  6.192D-02
    6.525000   -1.0802812782657D-01  6.060D-02
    6.550000   -1.0573050608839D-01  5.931D-02
    6.575000   -1.0348705936382D-01  5.806D-02
    6.600000   -1.0129644380498D-01  5.683D-02
    6.625000   -9.9157347840256D-02  5.563D-02
    6.650000   -9.7068491576944D-02  5.445D-02
    6.675000   -9.5028626200157D-02  5.331D-02
    6.700000   -9.3036533369373D-02  5.219D-02
    6.725000   -9.1091024613938D-02  5.110D-02
    6.750000   -8.9190940728726D-02  5.004D-02
    6.775000   -8.7335151171035D-02  4.899D-02
    6.800000   -8.5522553459713D-02  4.798D-02
    6.825000   -8.3752072577426D-02  4.698D-02
    6.850000   -8.2022660376874D-02  4.601D-02
    6.875000   -8.0333294991713D-02  4.507D-02
    6.900000   -7.8682980252835D-02  4.414D-02
    6.925000   -7.7070745110621D-02  4.324D-02
    6.950000   -7.5495643063689D-02  4.235D-02
    6.975000   -7.3956751594632D-02  4.149D-02
    7.000000   -7.2453171613140D-02  4.065D-02
    7.025000   -7.0984026906915D-02  3.982D-02
    7.050000   -6.9548463600664D-02  3.902D-02
    7.075000   -6.8145649623474D-02  3.823D-02
    7.100000   -6.6774774184804D-02  3.746D-02
    7.125000   -6.5435047259283D-02  3.671D-02
    7.150000   -6.4125699080497D-02  3.597D-02
    7.175000   -6.2845979643888D-02  3.526D-02
    7.200000   -6.1595158218874D-02  3.455D-02
    7.225000   -6.0372522870269D-02  3.387D-02
    7.250000   -5.9177379989055D-02  3.320D-02
    7.275000   -5.8009053832534D-02  3.254D-02
    7.300000   -5.6866886073879D-02  3.190D-02
    7.325000   -5.5750235361062D-02  3.128D-02
    7.350000   -5.4658476885146D-02  3.066D-02
    7.375000   -5.3591001957885D-02  3.006D-02
    7.400000   -5.2547217598594D-02  2.948D-02
    7.425000   -5.1526546130201D-02  2.891D-02
    7.450000   -5.0528424784415D-02  2.835D-02
    7.475000   -4.9552305315915D-02  2.780D-02
    7.500000   -4.8597653625460D-02  2.726D-02
    7.525000   -4.7663949391812D-02  2.674D-02
    7.550000   -4.6750685712355D-02  2.623D-02
    7.575000   -4.5857368752302D-02  2.573D-02
    7.600000   -4.4983517402341D-02  2.524D-02
    7.625000   -4.4128662944607D-02  2.476D-02
    7.650000   -4.3292348726839D-02  2.429D-02
    7.675000   -4.2474129844580D-02  2.383D-02
    7.700000   -4.1673572831284D-02  2.338D-02
    7.725000   -4.0890255356179D-02  2.294D-02
    7.750000   -4.0123765929749D-02  2.251D-02
    7.775000   -3.9373703616675D-02  2.209D-02
    7.800000   -3.8639677756111D-02  2.168D-02
    7.825000   -3.7921307689108D-02  2.127D-02
    7.850000   -3.7218222493082D-02  2.088D-02
    7.875000   -3.6530060723144D-02  2.049D-02
    7.900000   -3.5856470160151D-02  2.012D-02
    7.925000   -3.5197107565348D-02  1.975D-02
    7.950000   -3.4551638441427D-02  1.938D-02
    7.975000   -3.3919736799882D-02  1.903D-02
    8.000000   -3.3301084934497D-02  1.868D-02
    8.025000   -3.2695373200836D-02  1.834D-02
    8.050000   -3.2102299801590D-02  1.801D-02
    8.075000   -3.1521570577639D-02  1.768D-02
    8.100000   -3.0952898804697D-02  1.736D-02
    8.125000   -3.0396004995400D-02  1.705D-02
    8.150000   -2.9850616706699D-02  1.675D-02
    8.175000   -2.9316468352441D-02  1.645D-02
    8.200000   -2.8793301020994D-02  1.615D-02
    8.225000   -2.8280862297794D-02  1.587D-02
    8.250000   -2.7778906092692D-02  1.558D-02
    8.275000   -2.7287192471973D-02  1.531D-02
    8.300000   -2.6805487494935D-02  1.504D-02
    8.325000   -2.6333563054900D-02  1.477D-02
    8.350000   -2.5871196724548D-02  1.451D-02
    8.375000   -2.5418171605463D-02  1.426D-02
    8.400000   -2.4974276181772D-02  1.401D-02
    8.425000   -2.4539304177778D-02  1.377D-02
    8.450000   -2.4113054419473D-02  1.353D-02
    8.475000   -2.3695330699836D-02  1.329D-02
    8.500000   -2.3285941647810D-02  1.306D-02
    8.525000   -2.2884700600853D-02  1.284D-02
    8.550000   -2.2491425480981D-02  1.262D-02
    8.575000   -2.2105938674198D-02  1.240D-02
    8.600000   -2.1728066913223D-02  1.219D-02
    8.625000   -2.1357641163424D-02  1.198D-02
    8.650000   -2.0994496511881D-02  1.178D-02
    8.675000   -2.0638472059470D-02  1.158D-02
    8.700000   -2.0289410815913D-02  1.138D-02
    8.725000   -1.9947159597693D-02  1.119D-02
    8.750000   -1.9611568928760D-02  1.100D-02
    8.775000   -1.9282492943954D-02  1.082D-02
    8.800000   -1.8959789295067D-02  1.064D-02
    8.825000   -1.8643319059477D-02  1.046D-02
    8.850000   -1.8332946651267D-02  1.028D-02
    8.875000   -1.8028539734782D-02  1.011D-02
    8.900000   -1.7729969140538D-02  9.946D-03
    8.925000   -1.7437108783429D-02  9.782D-03
    8.950000   -1.7149835583158D-02  9.621D-03
    8.975000   -1.6868029386840D-02  9.463D-03
    9.000000   -1.6591572893713D-02  9.308D-03
    9.025000   -1.6320351581889D-02  9.156D-03
    9.050000   -1.6054253637108D-02  9.006D-03
    9.075000   -1.5793169883418D-02  8.860D-03
    9.100000   -1.5536993715735D-02  8.716D-03
    9.125000   -1.5285621034241D-02  8.575D-03
    9.150000   -1.5038950180551D-02  8.437D-03
    9.175000   -1.4796881875608D-02  8.301D-03
    9.200000   -1.4559319159259D-02  8.168D-03
    9.225000   -1.4326167331465D-02  8.037D-03
    9.250000   -1.4097333895091D-02  7.909D-03
    9.275000   -1.3872728500246D-02  7.783D-03
    9.300000   -1.3652262890111D-02  7.659D-03
    9.325000   -1.3435850848236D-02  7.537D-03
    9.350000   -1.3223408147243D-02  7.418D-03
    9.375000   -1.3014852498907D-02  7.301D-03
    9.400000   -1.2810103505580D-02  7.186D-03
    9.425000   -1.2609082612908D-02  7.074D-03
    9.450000   -1.2411713063816D-02  6.963D-03
    9.475000   -1.2217919853721D-02  6.854D-03
    9.500000   -1.2027629686938D-02  6.747D-03
    9.525000   -1.1840770934247D-02  6.643D-03
    9.550000   -1.1657273591587D-02  6.540D-03
    9.575000   -1.1477069239851D-02  6.439D-03
    9.600000   -1.1300091005743D-02  6.339D-03
    9.625000   -1.1126273523671D-02  6.242D-03
    9.650000   -1.0955552898653D-02  6.146D-03
    9.675000   -1.0787866670198D-02  6.052D-03
    9.700000   -1.0623153777137D-02  5.960D-03
    9.725000   -1.0461354523388D-02  5.869D-03
    9.750000   -1.0302410544614D-02  5.780D-03
    9.775000   -1.0146264775757D-02  5.692D-03
    9.800000   -9.9928614194275D-03  5.606D-03
    9.825000   -9.8421459151165D-03  5.521D-03
    9.850000   -9.6940649092138D-03  5.438D-03
    9.875000   -9.5485662258087D-03  5.357D-03
    9.900000   -9.4055988382508D-03  5.276D-03
    9.925000   -9.2651128414508D-03  5.198D-03
    9.950000   -9.1270594249006D-03  5.120D-03
    9.975000   -8.9913908463924D-03  5.044D-03
   10.000000   -8.8580604064185D-03  4.969D-03
   10.025000   -8.7270224232325D-03  4.896D-03
   10.050000   -8.5982322085540D-03  4.824D-03
   10.075000   -8.4716460438987D-03  4.753D-03
   10.100000   -8.3472211575181D-03  4.683D-03
   10.125000   -8.2249157019296D-03  4.614D-03
   10.150000   -8.1046887320244D-03  4.547D-03
   10.175000   -7.9865001837342D-03  4.480D-03
   10.200000   -7.8703108532429D-03  4.415D-03
   10.225000   -7.7560823767293D-03  4.351D-03
   10.250000   -7.6437772106247D-03  4.288D-03
   10.275000   -7.5333586123724D-03  4.226D-03
   10.300000   -7.4247906216751D-03  4.165D-03
   10.325000   -7.3180380422180D-03  4.105D-03
   10.350000   -7.2130664238533D-03  4.046D-03
   10.375000   -7.1098420452341D-03  3.989D-03
   10.400000   -7.0083318968864D-03  3.932D-03
   10.425000   -6.9085036647072D-03  3.876D-03
   10.450000   -6.8103257138753D-03  3.821D-03
   10.475000   -6.7137670731677D-03  3.766D-03
   10.500000   -6.6187974196656D-03  3.713D-03
   10.525000   -6.5253870638450D-03  3.661D-03
   10.550000   -6.4335069350372D-03  3.609D-03
   10.575000   -6.3431285672515D-03  3.558D-03
   10.600000   -6.2542240853510D-03  3.509D-03
   10.625000   -6.1667661915694D-03  3.460D-03
   10.650000   -6.0807281523637D-03  3.411D-03
   10.675000   -5.9960837855892D-03  3.364D-03
   10.700000   -5.9128074479938D-03  3.317D-03
   10.725000   -5.8308740230171D-03  3.271D-03
   10.750000   -5.7502589088916D-03  3.226D-03
   10.775000   -5.6709380070348D-03  3.181D-03
   10.800000   -5.5928877107255D-03  3.138D-03
   10.825000   -5.5160848940567D-03  3.094D-03
   10.850000   -5.4405069011591D-03  3.052D-03
   10.875000   -5.3661315356854D-03  3.010D-03
   10.900000   -5.2929370505514D-03  2.969D-03
   10.925000   -5.2209021379256D-03  2.929D-03
   10.950000   -5.1500059194609D-03  2.889D-03
   10.975000   -5.0802279367633D-03  2.850D-03
   11.000000   -5.0115481420895D-03  2.811D-03
   11.025000   -4.9439468892693D-03  2.774D-03
   11.050000   -4.8774049248466D-03  2.736D-03
   11.075000   -4.8119033794308D-03  2.699D-03
   11.100000   -4.7474237592588D-03  2.663D-03
   11.125000   -4.6839479379555D-03  2.628D-03
   11.150000   -4.6214581484931D-03  2.593D-03
   11.175000   -4.5599369753405D-03  2.558D-03
   11.200000   -4.4993673468005D-03  2.524D-03
   11.225000   -4.4397325275278D-03  2.491D-03
   11.250000   -4.3810161112253D-03  2.458D-03
   11.275000   -4.3232020135119D-03  2.425D-03
   11.300000   -4.2662744649596D-03  2.393D-03
   11.325000   -4.2102180042944D-03  2.362D-03
   11.350000   -4.1550174717563D-03  2.331D-03
   11.375000   -4.1006580026163D-03  2.300D-03
   11.400000   -4.0471250208447D-03  2.270D-03
   11.425000   -3.9944042329272D-03  2.241D-03
   11.450000   -3.9424816218255D-03  2.212D-03
   11.475000   -3.8913434410792D-03  2.183D-03
   11.500000   -3.8409762090435D-03  2.155D-03
   11.525000   -3.7913667032621D-03  2.127D-03
   11.550000   -3.7425019549697D-03  2.100D-03
   11.575000   -3.6943692437212D-03  2.073D-03
   11.600000   -3.6469560921459D-03  2.046D-03
   11.625000   -3.6002502608218D-03  2.020D-03
   11.650000   -3.5542397432681D-03  1.994D-03
   11.675000   -3.5089127610522D-03  1.968D-03
   11.700000   -3.4642577590092D-03  1.943D-03
   11.725000   -3.4202634005710D-03  1.919D-03
   11.750000   -3.3769185632008D-03  1.894D-03
   11.775000   -3.3342123339331D-03  1.870D-03
   11.800000   -3.2921340050140D-03  1.847D-03
   11.825000   -3.2506730696413D-03  1.824D-03
   11.850000   -3.2098192178001D-03  1.801D-03
   11.875000   -3.1695623321937D-03  1.778D-03
   11.900000   -3.1298924842654D-03  1.756D-03
   11.925000   -3.0907999303106D-03  1.734D-03
   11.950000   -3.0522751076759D-03  1.712D-03
   11.975000   -3.0143086310436D-03  1.691D-03
   12.000000   -2.9768912887994D-03  1.670D-03
   12.025000   -2.9400140394820D-03  1.649D-03
   12.050000   -2.9036680083108D-03  1.629D-03
   12.075000   -2.8678444837916D-03  1.609D-03
   12.100000   -2.8325349143980D-03  1.589D-03
   12.125000   -2.7977309053262D-03  1.570D-03
   12.150000   -2.7634242153213D-03  1.550D-03
   12.175000   -2.7296067535745D-03  1.531D-03
   12.200000   -2.6962705766887D-03  1.513D-03
   12.225000   -2.6634078857104D-03  1.494D-03
   12.250000   -2.6310110232271D-03  1.476D-03
   12.275000   -2.5990724705293D-03  1.458D-03
   12.300000   -2.5675848448331D-03  1.440D-03
   12.325000   -2.5365408965649D-03  1.423D-03
   12.350000   -2.5059335067049D-03  1.406D-03
   12.375000   -2.4757556841883D-03  1.389D-03
   12.400000   -2.4460005633632D-03  1.372D-03
   12.425000   -2.4166614015040D-03  1.356D-03
   12.450000   -2.3877315763782D-03  1.340D-03
   12.475000   -2.3592045838663D-03  1.323D-03
   12.500000   -2.3310740356322D-03  1.308D-03
   12.525000   -2.3033336568454D-03  1.292D-03
   12.550000   -2.2759772839508D-03  1.277D-03
   12.575000   -2.2489988624868D-03  1.262D-03
   12.600000   -2.2223924449506D-03  1.247D-03
   12.625000   -2.1961521887085D-03  1.232D-03
   12.650000   -2.1702723539514D-03  1.218D-03
   12.675000   -2.1447473016939D-03  1.203D-03
   12.700000   -2.1195714918151D-03  1.189D-03
   12.725000   -2.0947394811425D-03  1.175D-03
   12.750000   -2.0702459215753D-03  1.161D-03
   12.775000   -2.0460855582479D-03  1.148D-03
   12.800000   -2.0222532277318D-03  1.134D-03
   12.825000   -1.9987438562766D-03  1.121D-03
   12.850000   -1.9755524580868D-03  1.108D-03
   12.875000   -1.9526741336348D-03  1.095D-03
   12.900000   -1.9301040680106D-03  1.083D-03
   12.925000   -1.9078375293046D-03  1.070D-03
   12.950000   -1.8858698670249D-03  1.058D-03
   12.975000   -1.8641965105478D-03  1.046D-03
   13.000000   -1.8428129675996D-03  1.034D-03
   13.025000   -1.8217148227717D-03  1.022D-03
   13.050000   -1.8008977360645D-03  1.010D-03
   13.075000   -1.7803574414630D-03  9.988D-04
   13.100000   -1.7600897455412D-03  9.874D-04
   13.125000   -1.7400905260954D-03  9.762D-04
   13.150000   -1.7203557308056D-03  9.651D-04
   13.175000   -1.7008813759245D-03  9.542D-04
   13.200000   -1.6816635449939D-03  9.434D-04
   13.225000   -1.6626983875860D-03  9.328D-04
   13.250000   -1.6439821180724D-03  9.223D-04
   13.275000   -1.6255110144169D-03  9.119D-04
   13.300000   -1.6072814169926D-03  9.017D-04
   13.325000   -1.5892897274250D-03  8.916D-04
   13.350000   -1.5715324074562D-03  8.816D-04
   13.375000   -1.5540059778340D-03  8.718D-04
   13.400000   -1.5367070172225D-03  8.621D-04
   13.425000   -1.5196321611349D-03  8.525D-04
   13.450000   -1.5027781008880D-03  8.430D-04
   13.475000   -1.4861415825778D-03  8.337D-04
   13.500000   -1.4697194060757D-03  8.245D-04
   13.525000   -1.4535084240440D-03  8.154D-04
   13.550000   -1.4375055409727D-03  8.064D-04
   13.575000   -1.4217077122343D-03  7.976D-04
   13.600000   -1.4061119431580D-03  7.888D-04
   13.625000   -1.3907152881220D-03  7.802D-04
   13.650000   -1.3755148496643D-03  7.717D-04
   13.675000   -1.3605077776109D-03  7.632D-04
   13.700000   -1.3456912682217D-03  7.549D-04
   13.725000   -1.3310625633519D-03  7.467D-04
   13.750000   -1.3166189496324D-03  7.386D-04
   13.775000   -1.3023577576638D-03  7.306D-04
   13.800000   -1.2882763612282D-03  7.227D-04
   13.825000   -1.2743721765153D-03  7.149D-04
   13.850000   -1.2606426613645D-03  7.072D-04
   13.875000   -1.2470853145210D-03  6.996D-04
   13.900000   -1.2336976749076D-03  6.921D-04
   13.925000   -1.2204773209094D-03  6.847D-04
   13.950000   -1.2074218696732D-03  6.774D-04
   13.975000   -1.1945289764208D-03  6.701D-04
   14.000000   -1.1817963337749D-03  6.630D-04
   14.025000   -1.1692216710985D-03  6.559D-04
   14.050000   -1.1568027538470D-03  6.490D-04
   14.075000   -1.1445373829329D-03  6.421D-04
   14.100000   -1.1324233941026D-03  6.353D-04
   14.125000   -1.1204586573254D-03  6.286D-04
   14.150000   -1.1086410761938D-03  6.219D-04
   14.175000   -1.0969685873362D-03  6.154D-04
   14.200000   -1.0854391598398D-03  6.089D-04
   14.225000   -1.0740507946853D-03  6.025D-04
   14.250000   -1.0628015241920D-03  5.962D-04
   14.275000   -1.0516894114738D-03  5.900D-04
   14.300000   -1.0407125499051D-03  5.838D-04
   14.325000   -1.0298690625973D-03  5.777D-04
   14.350000   -1.0191571018848D-03  5.717D-04
   14.375000   -1.0085748488214D-03  5.658D-04
   14.400000   -9.9812051268556D-04  5.599D-04
   14.425000   -9.8779233049512D-04  5.541D-04
   14.450000   -9.7758856653136D-04  5.484D-04
   14.475000   -9.6750751187211D-04  5.428D-04
   14.500000   -9.5754748393312D-04  5.372D-04
   14.525000   -9.4770682601881D-04  5.317D-04
   14.550000   -9.3798390688036D-04  5.262D-04
   14.575000   -9.2837712028341D-04  5.208D-04
   14.600000   -9.1888488458237D-04  5.155D-04
   14.625000   -9.0950564230402D-04  5.102D-04
   14.650000   -9.0023785973772D-04  5.050D-04
   14.675000   -8.9108002653399D-04  4.999D-04
   14.700000   -8.8203065531023D-04  4.948D-04
   14.725000   -8.7308828126371D-04  4.898D-04
   14.750000   -8.6425146179166D-04  4.848D-04
   14.775000   -8.5551877611883D-04  4.799D-04
   14.800000   -8.4688882493107D-04  4.751D-04
   14.825000   -8.3836023001666D-04  4.703D-04
   14.850000   -8.2993163391326D-04  4.656D-04
   14.875000   -8.2160169956176D-04  4.609D-04
   14.900000   -8.1336910996691D-04  4.563D-04
   14.925000   -8.0523256786326D-04  4.517D-04
   14.950000   -7.9719079538755D-04  4.472D-04
   14.975000   -7.8924253375783D-04  4.428D-04
   15.000000   -7.8138654295689D-04  4.384D-04
   15.025000   -7.7362160142281D-04  4.340D-04
   15.050000   -7.6594650574423D-04  4.297D-04
   15.075000   -7.5836007036197D-04  4.254D-04
   15.100000   -7.5086112727502D-04  4.212D-04
   15.125000   -7.4344852575262D-04  4.171D-04
   15.150000   -7.3612113205119D-04  4.130D-04
   15.175000   -7.2887782913652D-04  4.089D-04
   15.200000   -7.2171751641081D-04  4.049D-04
   15.225000   -7.1463910944447D-04  4.009D-04
   15.250000   -7.0764153971308D-04  3.970D-04
   15.275000   -7.0072375433894D-04  3.931D-04
   15.300000   -6.9388471583660D-04  3.893D-04
   15.325000   -6.8712340186421D-04  3.855D-04
   15.350000   -6.8043880497798D-04  3.817D-04
   15.375000   -6.7382993239180D-04  3.780D-04
   15.400000   -6.6729580574078D-04  3.743D-04
   15.425000   -6.6083546084912D-04  3.707D-04
   15.450000   -6.5444794750180D-04  3.671D-04
   15.475000   -6.4813232922119D-04  3.636D-04
   15.500000   -6.4188768304585D-04  3.601D-04
   15.525000   -6.3571309931539D-04  3.566D-04
   15.550000   -6.2960768145733D-04  3.532D-04
   15.575000   -6.2357054577843D-04  3.498D-04
   15.600000   -6.1760082125999D-04  3.465D-04
   15.625000   -6.1169764935583D-04  3.432D-04
   15.650000   -6.0586018379476D-04  3.399D-04
   15.675000   -6.0008759038578D-04  3.366D-04
   15.700000   -5.9437904682712D-04  3.334D-04
   15.725000   -5.8873374251818D-04  3.303D-04
   15.750000   -5.8315087837512D-04  3.271D-04
   15.775000   -5.7762966664942D-04  3.240D-04
   15.800000   -5.7216933074964D-04  3.210D-04
   15.825000   -5.6676910506620D-04  3.180D-04
   15.850000   -5.6142823479938D-04  3.150D-04
   15.875000   -5.5614597578986D-04  3.120D-04
   15.900000   -5.5092159435272D-04  3.091D-04
   15.925000   -5.4575436711374D-04  3.062D-04
   15.950000   -5.4064358084897D-04  3.033D-04
   15.975000   -5.3558853232679D-04  3.005D-04
   16.000000   -5.3058852815262D-04  2.977D-04
   16.025000   -5.2564288461639D-04  2.949D-04
   16.050000   -5.2075092754267D-04  2.921D-04
   16.075000   -5.1591199214304D-04  2.894D-04
   16.100000   -5.1112542287164D-04  2.867D-04
   16.125000   -5.0639057328217D-04  2.841D-04
   16.150000   -5.0170680588815D-04  2.815D-04
   16.175000   -4.9707349202533D-04  2.789D-04
   16.200000   -4.9249001171599D-04  2.763D-04
   16.225000   -4.8795575353614D-04  2.737D-04
   16.250000   -4.8347011448459D-04  2.712D-04
   16.275000   -4.7903249985422D-04  2.687D-04
   16.300000   -4.7464232310589D-04  2.663D-04
   16.325000   -4.7029900574330D-04  2.638D-04
   16.350000   -4.6600197719159D-04  2.614D-04
   16.375000   -4.6175067467629D-04  2.590D-04
   16.400000   -4.5754454310558D-04  2.567D-04
   16.425000   -4.5338303495402D-04  2.543D-04
   16.450000   -4.4926561014774D-04  2.520D-04
   16.475000   -4.4519173595246D-04  2.497D-04
   16.500000   -4.4116088686269D-04  2.475D-04
   16.525000   -4.3717254449304D-04  2.453D-04
   16.550000   -4.3322619747106D-04  2.430D-04
   16.575000   -4.2932134133234D-04  2.408D-04
   16.600000   -4.2545747841683D-04  2.387D-04
   16.625000   -4.2163411776703D-04  2.365D-04
   16.650000   -4.1785077502828D-04  2.344D-04
   16.675000   -4.1410697234950D-04  2.323D-04
   16.700000   -4.1040223828747D-04  2.302D-04
   16.725000   -4.0673610771036D-04  2.282D-04
   16.750000   -4.0310812170504D-04  2.261D-04
   16.775000   -3.9951782748418D-04  2.241D-04
   16.800000   -3.9596477829599D-04  2.221D-04
   16.825000   -3.9244853333493D-04  2.202D-04
   16.850000   -3.8896865765361D-04  2.182D-04
   16.875000   -3.8552472207694D-04  2.163D-04
   16.900000   -3.8211630311699D-04  2.144D-04
   16.925000   -3.7874298288938D-04  2.125D-04
   16.950000   -3.7540434903088D-04  2.106D-04
   16.975000   -3.7209999461900D-04  2.087D-04
   17.000000   -3.6882951809194D-04  2.069D-04
   17.025000   -3.6559252317043D-04  2.051D-04
   17.050000   -3.6238861878068D-04  2.033D-04
   17.075000   -3.5921741897853D-04  2.015D-04
   17.100000   -3.5607854287488D-04  1.998D-04
   17.125000   -3.5297161456213D-04  1.980D-04
   17.150000   -3.4989626304209D-04  1.963D-04
   17.175000   -3.4685212215488D-04  1.946D-04
   17.200000   -3.4383883050859D-04  1.929D-04
   17.225000   -3.4085603141109D-04  1.912D-04
   17.250000   -3.3790337280157D-04  1.896D-04
   17.275000   -3.3498050718423D-04  1.879D-04
   17.300000   -3.3208709156265D-04  1.863D-04
   17.325000   -3.2922278737497D-04  1.847D-04
   17.350000   -3.2638726043050D-04  1.831D-04
   17.375000   -3.2358018084698D-04  1.815D-04
   17.400000   -3.2080122298903D-04  1.800D-04
   17.425000   -3.1805006540753D-04  1.784D-04
   17.450000   -3.1532639078004D-04  1.769D-04
   17.475000   -3.1262988585172D-04  1.754D-04
   17.500000   -3.0996024137792D-04  1.739D-04
   17.525000   -3.0731715206689D-04  1.724D-04
   17.550000   -3.0470031652402D-04  1.709D-04
   17.575000   -3.0210943719638D-04  1.695D-04
   17.600000   -2.9954422031868D-04  1.680D-04
   17.625000   -2.9700437585960D-04  1.666D-04
   17.650000   -2.9448961746919D-04  1.652D-04
   17.675000   -2.9199966242716D-04  1.638D-04
   17.700000   -2.8953423159180D-04  1.624D-04
   17.725000   -2.8709304934963D-04  1.611D-04
   17.750000   -2.8467584356601D-04  1.597D-04
   17.775000   -2.8228234553641D-04  1.584D-04
   17.800000   -2.7991228993860D-04  1.570D-04
   17.825000   -2.7756541478518D-04  1.557D-04
   17.850000   -2.7524146137740D-04  1.544D-04
   17.875000   -2.7294017425900D-04  1.531D-04
   17.900000   -2.7066130117147D-04  1.518D-04
   17.925000   -2.6840459300946D-04  1.506D-04
   17.950000   -2.6616980377712D-04  1.493D-04
   17.975000   -2.6395669054496D-04  1.481D-04
   18.000000   -2.6176501340765D-04  1.468D-04
   18.025000   -2.5959453544207D-04  1.456D-04
   18.050000   -2.5744502266633D-04  1.444D-04
   18.075000   -2.5531624399902D-04  1.432D-04