
variables = "r", "B(r) ", "Uncertainty"
zone T = "State 1 B(r)   66N09p6q2Rf4_8_C3ReD"

    0.000000   -6.9362150737301D+00     0.0
    0.025000   -4.9516044928839D-02     0.0
    0.050000   -4.9516386806689D-02     0.0
    0.075000   -4.9517314776823D-02     0.0
    0.100000   -4.9519121921328D-02     0.0
    0.125000   -4.9522101361933D-02     0.0
    0.150000   -4.9526546269171D-02     0.0
    0.175000   -4.9532749869438D-02     0.0
    0.200000   -4.9541005449964D-02     0.0
    0.225000   -4.9551606361685D-02     0.0
    0.250000   -4.9564846020020D-02     0.0
    0.275000   -4.9581017903544D-02     0.0
    0.300000   -4.9600415550558D-02     0.0
    0.325000   -4.9623332553549D-02     0.0
    0.350000   -4.9650062551543D-02     0.0
    0.375000   -4.9680899220339D-02     0.0
    0.400000   -4.9716136260629D-02     0.0
    0.425000   -4.9756067383995D-02     0.0
    0.450000   -4.9800986296783D-02     0.0
    0.475000   -4.9851186681849D-02     0.0
    0.500000   -4.9906962178176D-02     0.0
    0.525000   -4.9968606358366D-02     0.0
    0.550000   -5.0036412703981D-02     0.0
    0.575000   -5.0110674578768D-02     0.0
    0.600000   -5.0191685199738D-02     0.0
    0.625000   -5.0279737606104D-02     0.0
    0.650000   -5.0375124626091D-02     0.0
    0.675000   -5.0478138841605D-02     0.0
    0.700000   -5.0589072550762D-02     0.0
    0.725000   -5.0708217728290D-02     0.0
    0.750000   -5.0835865983796D-02     0.0
    0.775000   -5.0972308517905D-02     0.0
    0.800000   -5.1117836076282D-02     0.0
    0.825000   -5.1272738901521D-02     0.0
    0.850000   -5.1437306682939D-02     0.0
    0.875000   -5.1611828504255D-02     0.0
    0.900000   -5.1796592789171D-02     0.0
    0.925000   -5.1991887244872D-02     0.0
    0.950000   -5.2197998803444D-02     0.0
    0.975000   -5.2415213561231D-02     0.0
    1.000000   -5.2643816716131D-02     0.0
    1.025000   -5.2884092502867D-02     0.0
    1.050000   -5.3136324126221D-02     0.0
    1.075000   -5.3400793692274D-02     0.0
    1.100000   -5.3677782137649D-02     0.0
    1.125000   -5.3967569156796D-02     0.0
    1.150000   -5.4270433127321D-02     0.0
    1.175000   -5.4586651033401D-02     0.0
    1.200000   -5.4916498387290D-02     0.0
    1.225000   -5.5260249148962D-02     0.0
    1.250000   -5.5618175643901D-02     0.0
    1.275000   -5.5990548479083D-02     0.0
    1.300000   -5.6377636457164D-02     0.0
    1.325000   -5.6779706488925D-02     0.0
    1.350000   -5.7197023503995D-02     0.0
    1.375000   -5.7629850359897D-02     0.0
    1.400000   -5.8078447749449D-02     0.0
    1.425000   -5.8543074106565D-02     0.0
    1.450000   -5.9023985510496D-02     0.0
    1.475000   -5.9521435588555D-02     0.0
    1.500000   -6.0035675417374D-02     0.0
    1.525000   -6.0566953422735D-02     0.0
    1.550000   -6.1115515278037D-02     0.0
    1.575000   -6.1681603801430D-02     0.0
    1.600000   -6.2265458851699D-02     0.0
    1.625000   -6.2867317222921D-02     0.0
    1.650000   -6.3487412537983D-02     0.0
    1.675000   -6.4125975140997D-02     0.0
    1.700000   -6.4783231988688D-02     0.0
    1.725000   -6.5459406540813D-02     0.0
    1.750000   -6.6154718649678D-02     0.0
    1.775000   -6.6869384448823D-02     0.0
    1.800000   -6.7603616240933D-02     0.0
    1.825000   -6.8357622385068D-02     0.0
    1.850000   -6.9131607183264D-02     0.0
    1.875000   -6.9925770766588D-02     0.0
    1.900000   -7.0740308980733D-02     0.0
    1.925000   -7.1575413271217D-02     0.0
    1.950000   -7.2431270568274D-02     0.0
    1.975000   -7.3308063171524D-02     0.0
    2.000000   -7.4205968634496D-02     0.0
    2.025000   -7.5125159649098D-02     0.0
    2.050000   -7.6065803930119D-02     0.0
    2.075000   -7.7028064099850D-02     0.0
    2.100000   -7.8012097572918D-02     0.0
    2.125000   -7.9018056441423D-02     0.0
    2.150000   -8.0046087360474D-02     0.0
    2.175000   -8.1096331434214D-02     0.0
    2.200000   -8.2168924102440D-02  2.966D-04
    2.225000   -8.3263995027893D-02  2.946D-04
    2.250000   -8.4381667984360D-02  2.926D-04
    2.275000   -8.5522060745633D-02  2.906D-04
    2.300000   -8.6685284975468D-02  2.885D-04
    2.325000   -8.7871446118630D-02  2.864D-04
    2.350000   -8.9080643293124D-02  2.843D-04
    2.375000   -9.0312969183719D-02  2.821D-04
    2.400000   -9.1568509936873D-02  2.799D-04
    2.425000   -9.2847345057158D-02  2.777D-04
    2.450000   -9.4149547305290D-02  2.755D-04
    2.475000   -9.5475182597875D-02  2.732D-04
    2.500000   -9.6824309908973D-02  2.709D-04
    2.525000   -9.8196981173584D-02  2.686D-04
    2.550000   -9.9593241193170D-02  2.663D-04
    2.575000   -1.0101312754332D-01  2.639D-04
    2.600000   -1.0245667048362D-01  2.615D-04
    2.625000   -1.0392389286997D-01  2.591D-04
    2.650000   -1.0541481006923D-01  2.566D-04
    2.675000   -1.0692942987651D-01  2.542D-04
    2.700000   -1.0846775243511D-01  2.517D-04
    2.725000   -1.1002977015927D-01  2.492D-04
    2.750000   -1.1161546765965D-01  2.467D-04
    2.775000   -1.1322482167203D-01  2.441D-04
    2.800000   -1.1485780098881D-01  2.416D-04
    2.825000   -1.1651436639396D-01  2.390D-04
    2.850000   -1.1819447060103D-01  2.364D-04
    2.875000   -1.1989805819467D-01  2.338D-04
    2.900000   -1.2162506557562D-01  2.312D-04
    2.925000   -1.2337542090915D-01  2.286D-04
    2.950000   -1.2514904407737D-01  2.259D-04
    2.975000   -1.2694584663509D-01  2.233D-04
    3.000000   -1.2876573176965D-01  2.206D-04
    3.025000   -1.3060859426470D-01  2.179D-04
    3.050000   -1.3247432046789D-01  2.152D-04
    3.075000   -1.3436278826280D-01  2.126D-04
    3.100000   -1.3627386704494D-01  2.099D-04
    3.125000   -1.3820741770214D-01  2.072D-04
    3.150000   -1.4016329259915D-01  2.045D-04
    3.175000   -1.4214133556678D-01  2.018D-04
    3.200000   -1.4414138189548D-01  1.991D-04
    3.225000   -1.4616325833343D-01  1.964D-04
    3.250000   -1.4820678308936D-01  1.937D-04
    3.275000   -1.5027176583999D-01  1.910D-04
    3.300000   -1.5235800774222D-01  1.883D-04
    3.325000   -1.5446530145012D-01  1.856D-04
    3.350000   -1.5659343113686D-01  1.830D-04
    3.375000   -1.5874217252142D-01  1.803D-04
    3.400000   -1.6091129290033D-01  1.776D-04
    3.425000   -1.6310055118441D-01  1.750D-04
    3.450000   -1.6530969794049D-01  1.724D-04
    3.475000   -1.6753847543830D-01  1.698D-04
    3.500000   -1.6978661770233D-01  1.672D-04
    3.525000   -1.7205385056893D-01  1.646D-04
    3.550000   -1.7433989174852D-01  1.620D-04
    3.575000   -1.7664445089295D-01  1.595D-04
    3.600000   -1.7896722966810D-01  1.569D-04
    3.625000   -1.8130792183162D-01  1.544D-04
    3.650000   -1.8366621331595D-01  1.520D-04
    3.675000   -1.8604178231645D-01  1.495D-04
    3.700000   -1.8843429938484D-01  1.471D-04
    3.725000   -1.9084342752775D-01  1.447D-04
    3.750000   -1.9326882231056D-01  1.423D-04
    3.775000   -1.9571013196628D-01  1.400D-04
    3.800000   -1.9816699750972D-01  1.377D-04
    3.825000   -2.0063905285673D-01  1.354D-04
    3.850000   -2.0312592494851D-01  1.331D-04
    3.875000   -2.0562723388107D-01  1.309D-04
    3.900000   -2.0814259303962D-01  1.288D-04
    3.925000   -2.1067160923806D-01  1.266D-04
    3.950000   -2.1321388286333D-01  1.245D-04
    3.975000   -2.1576900802466D-01  1.225D-04
    4.000000   -2.1833657270768D-01  1.205D-04
    4.025000   -2.2091615893328D-01  1.185D-04
    4.050000   -2.2350734292117D-01  1.166D-04
    4.075000   -2.2610969525805D-01  1.147D-04
    4.100000   -2.2872278107042D-01  1.129D-04
    4.125000   -2.3134616020176D-01  1.111D-04
    4.150000   -2.3397938739415D-01  1.093D-04
    4.175000   -2.3662201247418D-01  1.076D-04
    4.200000   -2.3927358054308D-01  1.060D-04
    4.225000   -2.4193363217090D-01  1.044D-04
    4.250000   -2.4460170359479D-01  1.028D-04
    4.275000   -2.4727732692101D-01  1.013D-04
    4.300000   -2.4996003033091D-01  9.989D-05
    4.325000   -2.5264933829038D-01  9.849D-05
    4.350000   -2.5534477176296D-01  9.714D-05
    4.375000   -2.5804584842632D-01  9.584D-05
    4.400000   -2.6075208289198D-01  9.459D-05
    4.425000   -2.6346298692821D-01  9.339D-05
    4.450000   -2.6617806968593D-01  9.224D-05
    4.475000   -2.6889683792741D-01  9.114D-05
    4.500000   -2.7161879625771D-01  9.009D-05
    4.525000   -2.7434344735871D-01  8.908D-05
    4.550000   -2.7707029222542D-01  8.813D-05
    4.575000   -2.7979883040465D-01  8.722D-05
    4.600000   -2.8252856023564D-01  8.636D-05
    4.625000   -2.8525897909265D-01  8.554D-05
    4.650000   -2.8798958362923D-01  8.477D-05
    4.675000   -2.9071987002410D-01  8.404D-05
    4.700000   -2.9344933422832D-01  8.335D-05
    4.725000   -2.9617747221372D-01  8.270D-05
    4.750000   -2.9890378022225D-01  8.209D-05
    4.775000   -3.0162775501623D-01  8.152D-05
    4.800000   -3.0434889412915D-01  8.098D-05
    4.825000   -3.0706669611693D-01  8.048D-05
    4.850000   -3.0978066080937D-01  8.001D-05
    4.875000   -3.1249028956171D-01  7.957D-05
    4.900000   -3.1519508550589D-01  7.916D-05
    4.925000   -3.1789455380156D-01  7.878D-05
    4.950000   -3.2058820188645D-01  7.843D-05
    4.975000   -3.2327553972591D-01  7.810D-05
    5.000000   -3.2595608006153D-01  7.779D-05
    5.025000   -3.2862933865854D-01  7.750D-05
    5.050000   -3.3129483455172D-01  7.724D-05
    5.075000   -3.3395209028979D-01  7.699D-05
    5.100000   -3.3660063217783D-01  7.675D-05
    5.125000   -3.3923999051783D-01  7.653D-05
    5.150000   -3.4186969984675D-01  7.632D-05
    5.175000   -3.4448929917232D-01  7.613D-05
    5.200000   -3.4709833220598D-01  7.594D-05
    5.225000   -3.4969634759306D-01  7.576D-05
    5.250000   -3.5228289913974D-01  7.558D-05
    5.275000   -3.5485754603678D-01  7.542D-05
    5.300000   -3.5741985307969D-01  7.525D-05
    5.325000   -3.5996939088516D-01  7.509D-05
    5.350000   -3.6250573610360D-01  7.492D-05
    5.375000   -3.6502847162754D-01  7.476D-05
    5.400000   -3.6753718679568D-01  7.459D-05
    5.425000   -3.7003147759246D-01  7.442D-05
    5.450000   -3.7251094684291D-01  7.425D-05
    5.475000   -3.7497520440255D-01  7.407D-05
    5.500000   -3.7742386734232D-01  7.388D-05
    5.525000   -3.7985656012817D-01  7.369D-05
    5.550000   -3.8227291479523D-01  7.348D-05
    5.575000   -3.8467257111642D-01  7.327D-05
    5.600000   -3.8705517676524D-01  7.304D-05
    5.625000   -3.8942038747270D-01  7.280D-05
    5.650000   -3.9176786717814D-01  7.255D-05
    5.675000   -3.9409728817384D-01  7.229D-05
    5.700000   -3.9640833124325D-01  7.201D-05
    5.725000   -3.9870068579280D-01  7.172D-05
    5.750000   -4.0097404997700D-01  7.141D-05
    5.775000   -4.0322813081684D-01  7.108D-05
    5.800000   -4.0546264431138D-01  7.073D-05
    5.825000   -4.0767731554235D-01  7.037D-05
    5.850000   -4.0987187877170D-01  6.999D-05
    5.875000   -4.1204607753200D-01  6.958D-05
    5.900000   -4.1419966470969D-01  6.916D-05
    5.925000   -4.1633240262100D-01  6.872D-05
    5.950000   -4.1844406308047D-01  6.825D-05
    5.975000   -4.2053442746222D-01  6.777D-05
    6.000000   -4.2260328675358D-01  6.726D-05
    6.025000   -4.2465044160141D-01  6.673D-05
    6.050000   -4.2667570235081D-01  6.618D-05
    6.075000   -4.2867888907633D-01  6.560D-05
    6.100000   -4.3065983160573D-01  6.500D-05
    6.125000   -4.3261836953603D-01  6.438D-05
    6.150000   -4.3455435224228D-01  6.374D-05
    6.175000   -4.3646763887860D-01  6.307D-05
    6.200000   -4.3835809837197D-01  6.238D-05
    6.225000   -4.4022560940842D-01  6.166D-05
    6.250000   -4.4207006041200D-01  6.093D-05
    6.275000   -4.4389134951629D-01  6.017D-05
    6.300000   -4.4568938452879D-01  5.939D-05
    6.325000   -4.4746408288808D-01  5.858D-05
    6.350000   -4.4921537161391D-01  5.776D-05
    6.375000   -4.5094318725032D-01  5.692D-05
    6.400000   -4.5264747580185D-01  5.606D-05
    6.425000   -4.5432819266306D-01  5.518D-05
    6.450000   -4.5598530254132D-01  5.428D-05
    6.475000   -4.5761877937310D-01  5.337D-05
    6.500000   -4.5922860623400D-01  5.245D-05
    6.525000   -4.6081477524237D-01  5.152D-05
    6.550000   -4.6237728745701D-01  5.057D-05
    6.575000   -4.6391615276887D-01  4.962D-05
    6.600000   -4.6543138978706D-01  4.867D-05
    6.625000   -4.6692302571920D-01  4.771D-05
    6.650000   -4.6839109624651D-01  4.676D-05
    6.675000   -4.6983564539357D-01  4.581D-05
    6.700000   -4.7125672539312D-01  4.488D-05
    6.725000   -4.7265439654607D-01  4.396D-05
    6.750000   -4.7402872707681D-01  4.306D-05
    6.775000   -4.7537979298422D-01  4.219D-05
    6.800000   -4.7670767788836D-01  4.135D-05
    6.825000   -4.7801247287328D-01  4.055D-05
    6.850000   -4.7929427632599D-01  3.980D-05
    6.875000   -4.8055319377191D-01  3.911D-05
    6.900000   -4.8178933770696D-01  3.848D-05
    6.925000   -4.8300282742659D-01  3.792D-05
    6.950000   -4.8419378885189D-01  3.744D-05
    6.975000   -4.8536235435306D-01  3.706D-05
    7.000000   -4.8650866257045D-01  3.677D-05
    7.025000   -4.8763285823340D-01  3.659D-05
    7.050000   -4.8873509197710D-01  3.652D-05
    7.075000   -4.8981552015772D-01  3.658D-05
    7.100000   -4.9087430466599D-01  3.676D-05
    7.125000   -4.9191161273952D-01  3.707D-05
    7.150000   -4.9292761677400D-01  3.751D-05
    7.175000   -4.9392249413359D-01  3.809D-05
    7.200000   -4.9489642696062D-01  3.880D-05
    7.225000   -4.9584960198497D-01  3.964D-05
    7.250000   -4.9678221033308D-01  4.060D-05
    7.275000   -4.9769444733714D-01  4.169D-05
    7.300000   -4.9858651234433D-01  4.290D-05
    7.325000   -4.9945860852658D-01  4.422D-05
    7.350000   -5.0031094269086D-01  4.565D-05
    7.375000   -5.0114372509031D-01  4.717D-05
    7.400000   -5.0195716923630D-01  4.880D-05
    7.425000   -5.0275149171173D-01  5.051D-05
    7.450000   -5.0352691198556D-01  5.230D-05
    7.475000   -5.0428365222899D-01  5.417D-05
    7.500000   -5.0502193713320D-01  5.612D-05
    7.525000   -5.0574199372895D-01  5.813D-05
    7.550000   -5.0644405120825D-01  6.020D-05
    7.575000   -5.0712834074805D-01  6.233D-05
    7.600000   -5.0779509533627D-01  6.452D-05
    7.625000   -5.0844454960029D-01  6.675D-05
    7.650000   -5.0907693963783D-01  6.904D-05
    7.675000   -5.0969250285070D-01  7.136D-05
    7.700000   -5.1029147778113D-01  7.373D-05
    7.725000   -5.1087410395111D-01  7.613D-05
    7.750000   -5.1144062170467D-01  7.857D-05
    7.775000   -5.1199127205326D-01  8.104D-05
    7.800000   -5.1252629652428D-01  8.354D-05
    7.825000   -5.1304593701290D-01  8.607D-05
    7.850000   -5.1355043563714D-01  8.862D-05
    7.875000   -5.1404003459641D-01  9.119D-05
    7.900000   -5.1451497603348D-01  9.379D-05
    7.925000   -5.1497550189996D-01  9.640D-05
    7.950000   -5.1542185382537D-01  9.903D-05
    7.975000   -5.1585427298976D-01  1.017D-04
    8.000000   -5.1627300000000D-01  1.043D-04
    8.025000   -5.1667827476979D-01  1.070D-04
    8.050000   -5.1707033640329D-01  1.097D-04
    8.075000   -5.1744942308248D-01  1.124D-04
    8.100000   -5.1781577195830D-01  1.151D-04
    8.125000   -5.1816961904549D-01  1.178D-04
    8.150000   -5.1851119912114D-01  1.205D-04
    8.175000   -5.1884074562706D-01  1.232D-04
    8.200000   -5.1915849057578D-01  1.259D-04
    8.225000   -5.1946466446038D-01  1.286D-04
    8.250000   -5.1975949616790D-01  1.313D-04
    8.275000   -5.2004321289652D-01  1.341D-04
    8.300000   -5.2031604007635D-01  1.368D-04
    8.325000   -5.2057820129388D-01  1.395D-04
    8.350000   -5.2082991821998D-01  1.422D-04
    8.375000   -5.2107141054146D-01  1.449D-04
    8.400000   -5.2130289589619D-01  1.476D-04
    8.425000   -5.2152458981164D-01  1.502D-04
    8.450000   -5.2173670564684D-01  1.529D-04
    8.475000   -5.2193945453778D-01  1.556D-04
    8.500000   -5.2213304534600D-01  1.582D-04
    8.525000   -5.2231768461062D-01  1.609D-04
    8.550000   -5.2249357650341D-01  1.635D-04
    8.575000   -5.2266092278711D-01  1.661D-04
    8.600000   -5.2281992277680D-01  1.687D-04
    8.625000   -5.2297077330430D-01  1.713D-04
    8.650000   -5.2311366868551D-01  1.739D-04
    8.675000   -5.2324880069069D-01  1.765D-04
    8.700000   -5.2337635851749D-01  1.790D-04
    8.725000   -5.2349652876678D-01  1.815D-04
    8.750000   -5.2360949542118D-01  1.840D-04
    8.775000   -5.2371543982613D-01  1.865D-04
    8.800000   -5.2381454067360D-01  1.890D-04
    8.825000   -5.2390697398815D-01  1.914D-04
    8.850000   -5.2399291311551D-01  1.939D-04
    8.875000   -5.2407252871342D-01  1.963D-04
    8.900000   -5.2414598874467D-01  1.987D-04
    8.925000   -5.2421345847243D-01  2.010D-04
    8.950000   -5.2427510045759D-01  2.034D-04
    8.975000   -5.2433107455820D-01  2.057D-04
    9.000000   -5.2438153793078D-01  2.080D-04
    9.025000   -5.2442664503364D-01  2.102D-04
    9.050000   -5.2446654763189D-01  2.125D-04
    9.075000   -5.2450139480428D-01  2.147D-04
    9.100000   -5.2453133295167D-01  2.169D-04
    9.125000   -5.2455650580715D-01  2.191D-04
    9.150000   -5.2457705444761D-01  2.212D-04
    9.175000   -5.2459311730688D-01  2.233D-04
    9.200000   -5.2460483019021D-01  2.254D-04
    9.225000   -5.2461232629010D-01  2.275D-04
    9.250000   -5.2461573620336D-01  2.295D-04
    9.275000   -5.2461518794948D-01  2.316D-04
    9.300000   -5.2461080699003D-01  2.335D-04
    9.325000   -5.2460271624922D-01  2.355D-04
    9.350000   -5.2459103613543D-01  2.374D-04
    9.375000   -5.2457588456372D-01  2.393D-04
    9.400000   -5.2455737697931D-01  2.412D-04
    9.425000   -5.2453562638179D-01  2.430D-04
    9.450000   -5.2451074335022D-01  2.448D-04
    9.475000   -5.2448283606895D-01  2.466D-04
    9.500000   -5.2445201035410D-01  2.484D-04
    9.525000   -5.2441836968072D-01  2.501D-04
    9.550000   -5.2438201521052D-01  2.518D-04
    9.575000   -5.2434304582012D-01  2.535D-04
    9.600000   -5.2430155812988D-01  2.551D-04
    9.625000   -5.2425764653306D-01  2.567D-04
    9.650000   -5.2421140322548D-01  2.583D-04
    9.675000   -5.2416291823553D-01  2.599D-04
    9.700000   -5.2411227945446D-01  2.614D-04
    9.725000   -5.2405957266703D-01  2.629D-04
    9.750000   -5.2400488158233D-01  2.644D-04
    9.775000   -5.2394828786485D-01  2.658D-04
    9.800000   -5.2388987116577D-01  2.672D-04
    9.825000   -5.2382970915427D-01  2.686D-04
    9.850000   -5.2376787754912D-01  2.699D-04
    9.875000   -5.2370445015018D-01  2.712D-04
    9.900000   -5.2363949887005D-01  2.725D-04
    9.925000   -5.2357309376575D-01  2.738D-04
    9.950000   -5.2350530307029D-01  2.750D-04
    9.975000   -5.2343619322436D-01  2.762D-04
   10.000000   -5.2336582890780D-01  2.774D-04
   10.025000   -5.2329427307112D-01  2.785D-04
   10.050000   -5.2322158696684D-01  2.797D-04
   10.075000   -5.2314783018075D-01  2.808D-04
   10.100000   -5.2307306066294D-01  2.818D-04
   10.125000   -5.2299733475880D-01  2.828D-04
   10.150000   -5.2292070723972D-01  2.839D-04
   10.175000   -5.2284323133363D-01  2.848D-04
   10.200000   -5.2276495875533D-01  2.858D-04
   10.225000   -5.2268593973660D-01  2.867D-04
   10.250000   -5.2260622305598D-01  2.876D-04
   10.275000   -5.2252585606842D-01  2.885D-04
   10.300000   -5.2244488473455D-01  2.893D-04
   10.325000   -5.2236335364972D-01  2.901D-04
   10.350000   -5.2228130607270D-01  2.909D-04
   10.375000   -5.2219878395415D-01  2.917D-04
   10.400000   -5.2211582796466D-01  2.924D-04
   10.425000   -5.2203247752260D-01  2.931D-04
   10.450000   -5.2194877082150D-01  2.938D-04
   10.475000   -5.2186474485723D-01  2.945D-04
   10.500000   -5.2178043545470D-01  2.951D-04
   10.525000   -5.2169587729430D-01  2.958D-04
   10.550000   -5.2161110393798D-01  2.963D-04
   10.575000   -5.2152614785488D-01  2.969D-04
   10.600000   -5.2144104044671D-01  2.974D-04
   10.625000   -5.2135581207270D-01  2.980D-04
   10.650000   -5.2127049207416D-01  2.985D-04
   10.675000   -5.2118510879871D-01  2.989D-04
   10.700000   -5.2109968962410D-01  2.994D-04
   10.725000   -5.2101426098167D-01  2.998D-04
   10.750000   -5.2092884837943D-01  3.002D-04
   10.775000   -5.2084347642473D-01  3.006D-04
   10.800000   -5.2075816884658D-01  3.009D-04
   10.825000   -5.2067294851760D-01  3.013D-04
   10.850000   -5.2058783747553D-01  3.016D-04
   10.875000   -5.2050285694442D-01  3.019D-04
   10.900000   -5.2041802735541D-01  3.022D-04
   10.925000   -5.2033336836715D-01  3.024D-04
   10.950000   -5.2024889888582D-01  3.027D-04
   10.975000   -5.2016463708478D-01  3.029D-04
   11.000000   -5.2008060042388D-01  3.031D-04
   11.025000   -5.1999680566837D-01  3.032D-04
   11.050000   -5.1991326890740D-01  3.034D-04
   11.075000   -5.1983000557228D-01  3.035D-04
   11.100000   -5.1974703045422D-01  3.037D-04
   11.125000   -5.1966435772186D-01  3.037D-04
   11.150000   -5.1958200093831D-01  3.038D-04
   11.175000   -5.1949997307796D-01  3.039D-04
   11.200000   -5.1941828654282D-01  3.039D-04
   11.225000   -5.1933695317866D-01  3.040D-04
   11.250000   -5.1925598429063D-01  3.040D-04
   11.275000   -5.1917539065873D-01  3.040D-04
   11.300000   -5.1909518255280D-01  3.039D-04
   11.325000   -5.1901536974725D-01  3.039D-04
   11.350000   -5.1893596153547D-01  3.039D-04
   11.375000   -5.1885696674387D-01  3.038D-04
   11.400000   -5.1877839374568D-01  3.037D-04
   11.425000   -5.1870025047436D-01  3.036D-04
   11.450000   -5.1862254443675D-01  3.035D-04
   11.475000   -5.1854528272592D-01  3.034D-04
   11.500000   -5.1846847203369D-01  3.032D-04
   11.525000   -5.1839211866287D-01  3.030D-04
   11.550000   -5.1831622853924D-01  3.029D-04
   11.575000   -5.1824080722322D-01  3.027D-04
   11.600000   -5.1816585992123D-01  3.025D-04
   11.625000   -5.1809139149686D-01  3.023D-04
   11.650000   -5.1801740648167D-01  3.020D-04
   11.675000   -5.1794390908581D-01  3.018D-04
   11.700000   -5.1787090320835D-01  3.016D-04
   11.725000   -5.1779839244730D-01  3.013D-04
   11.750000   -5.1772638010946D-01  3.010D-04
   11.775000   -5.1765486922002D-01  3.007D-04
   11.800000   -5.1758386253181D-01  3.004D-04
   11.825000   -5.1751336253449D-01  3.001D-04
   11.850000   -5.1744337146331D-01  2.998D-04
   11.875000   -5.1737389130782D-01  2.995D-04
   11.900000   -5.1730492382023D-01  2.991D-04
   11.925000   -5.1723647052361D-01  2.988D-04
   11.950000   -5.1716853271988D-01  2.984D-04
   11.975000   -5.1710111149755D-01  2.980D-04
   12.000000   -5.1703420773928D-01  2.976D-04
   12.025000   -5.1696782212925D-01  2.972D-04
   12.050000   -5.1690195516028D-01  2.968D-04
   12.075000   -5.1683660714085D-01  2.964D-04
   12.100000   -5.1677177820183D-01  2.960D-04
   12.125000   -5.1670746830307D-01  2.956D-04
   12.150000   -5.1664367723984D-01  2.951D-04
   12.175000   -5.1658040464902D-01  2.947D-04
   12.200000   -5.1651765001520D-01  2.942D-04
   12.225000   -5.1645541267652D-01  2.938D-04
   12.250000   -5.1639369183044D-01  2.933D-04
   12.275000   -5.1633248653926D-01  2.928D-04
   12.300000   -5.1627179573554D-01  2.923D-04
   12.325000   -5.1621161822736D-01  2.918D-04
   12.350000   -5.1615195270341D-01  2.913D-04
   12.375000   -5.1609279773790D-01  2.908D-04
   12.400000   -5.1603415179544D-01  2.903D-04
   12.425000   -5.1597601323564D-01  2.898D-04
   12.450000   -5.1591838031767D-01  2.893D-04
   12.475000   -5.1586125120463D-01  2.887D-04
   12.500000   -5.1580462396787D-01  2.882D-04
   12.525000   -5.1574849659105D-01  2.877D-04
   12.550000   -5.1569286697419D-01  2.871D-04
   12.575000   -5.1563773293757D-01  2.865D-04
   12.600000   -5.1558309222548D-01  2.860D-04
   12.625000   -5.1552894250990D-01  2.854D-04
   12.650000   -5.1547528139402D-01  2.848D-04
   12.675000   -5.1542210641569D-01  2.843D-04
   12.700000   -5.1536941505072D-01  2.837D-04
   12.725000   -5.1531720471617D-01  2.831D-04
   12.750000   -5.1526547277339D-01  2.825D-04
   12.775000   -5.1521421653110D-01  2.819D-04
   12.800000   -5.1516343324829D-01  2.813D-04
   12.825000   -5.1511312013709D-01  2.807D-04
   12.850000   -5.1506327436544D-01  2.801D-04
   12.875000   -5.1501389305981D-01  2.795D-04
   12.900000   -5.1496497330777D-01  2.789D-04
   12.925000   -5.1491651216039D-01  2.783D-04
   12.950000   -5.1486850663476D-01  2.777D-04
   12.975000   -5.1482095371618D-01  2.770D-04
   13.000000   -5.1477385036054D-01  2.764D-04
   13.025000   -5.1472719349635D-01  2.758D-04
   13.050000   -5.1468098002695D-01  2.751D-04
   13.075000   -5.1463520683247D-01  2.745D-04
   13.100000   -5.1458987077177D-01  2.739D-04
   13.125000   -5.1454496868438D-01  2.732D-04
   13.150000   -5.1450049739228D-01  2.726D-04
   13.175000   -5.1445645370166D-01  2.719D-04
   13.200000   -5.1441283440462D-01  2.713D-04
   13.225000   -5.1436963628081D-01  2.706D-04
   13.250000   -5.1432685609897D-01  2.700D-04
   13.275000   -5.1428449061849D-01  2.693D-04
   13.300000   -5.1424253659086D-01  2.687D-04
   13.325000   -5.1420099076104D-01  2.680D-04
   13.350000   -5.1415984986888D-01  2.674D-04
   13.375000   -5.1411911065038D-01  2.667D-04
   13.400000   -5.1407876983894D-01  2.661D-04
   13.425000   -5.1403882416660D-01  2.654D-04
   13.450000   -5.1399927036518D-01  2.647D-04
   13.475000   -5.1396010516741D-01  2.641D-04
   13.500000   -5.1392132530797D-01  2.634D-04
   13.525000   -5.1388292752457D-01  2.627D-04
   13.550000   -5.1384490855889D-01  2.621D-04
   13.575000   -5.1380726515757D-01  2.614D-04
   13.600000   -5.1376999407308D-01  2.607D-04
   13.625000   -5.1373309206462D-01  2.601D-04
   13.650000   -5.1369655589896D-01  2.594D-04
   13.675000   -5.1366038235120D-01  2.587D-04
   13.700000   -5.1362456820560D-01  2.581D-04
   13.725000   -5.1358911025624D-01  2.574D-04
   13.750000   -5.1355400530779D-01  2.567D-04
   13.775000   -5.1351925017612D-01  2.561D-04
   13.800000   -5.1348484168900D-01  2.554D-04
   13.825000   -5.1345077668663D-01  2.547D-04
   13.850000   -5.1341705202232D-01  2.541D-04
   13.875000   -5.1338366456295D-01  2.534D-04
   13.900000   -5.1335061118957D-01  2.527D-04
   13.925000   -5.1331788879784D-01  2.520D-04
   13.950000   -5.1328549429857D-01  2.514D-04
   13.975000   -5.1325342461812D-01  2.507D-04
   14.000000   -5.1322167669886D-01  2.500D-04
   14.025000   -5.1319024749957D-01  2.494D-04
   14.050000   -5.1315913399582D-01  2.487D-04
   14.075000   -5.1312833318032D-01  2.480D-04
   14.100000   -5.1309784206330D-01  2.474D-04
   14.125000   -5.1306765767281D-01  2.467D-04
   14.150000   -5.1303777705503D-01  2.461D-04
   14.175000   -5.1300819727453D-01  2.454D-04
   14.200000   -5.1297891541460D-01  2.447D-04
   14.225000   -5.1294992857744D-01  2.441D-04
   14.250000   -5.1292123388441D-01  2.434D-04
   14.275000   -5.1289282847627D-01  2.428D-04
   14.300000   -5.1286470951338D-01  2.421D-04
   14.325000   -5.1283687417586D-01  2.414D-04
   14.350000   -5.1280931966378D-01  2.408D-04
   14.375000   -5.1278204319733D-01  2.401D-04
   14.400000   -5.1275504201694D-01  2.395D-04
   14.425000   -5.1272831338346D-01  2.388D-04
   14.450000   -5.1270185457821D-01  2.382D-04
   14.475000   -5.1267566290316D-01  2.375D-04
   14.500000   -5.1264973568099D-01  2.369D-04
   14.525000   -5.1262407025516D-01  2.362D-04
   14.550000   -5.1259866399004D-01  2.356D-04
   14.575000   -5.1257351427091D-01  2.350D-04
   14.600000   -5.1254861850407D-01  2.343D-04
   14.625000   -5.1252397411684D-01  2.337D-04
   14.650000   -5.1249957855765D-01  2.330D-04
   14.675000   -5.1247542929598D-01  2.324D-04
   14.700000   -5.1245152382250D-01  2.318D-04
   14.725000   -5.1242785964895D-01  2.311D-04
   14.750000   -5.1240443430824D-01  2.305D-04
   14.775000   -5.1238124535441D-01  2.299D-04
   14.800000   -5.1235829036261D-01  2.292D-04
   14.825000   -5.1233556692909D-01  2.286D-04
   14.850000   -5.1231307267116D-01  2.280D-04
   14.875000   -5.1229080522719D-01  2.274D-04
   14.900000   -5.1226876225654D-01  2.268D-04
   14.925000   -5.1224694143953D-01  2.261D-04
   14.950000   -5.1222534047738D-01  2.255D-04
   14.975000   -5.1220395709218D-01  2.249D-04
   15.000000   -5.1218278902679D-01  2.243D-04
   15.025000   -5.1216183404481D-01  2.237D-04
   15.050000   -5.1214108993047D-01  2.231D-04
   15.075000   -5.1212055448862D-01  2.225D-04
   15.100000   -5.1210022554457D-01  2.219D-04
   15.125000   -5.1208010094408D-01  2.213D-04
   15.150000   -5.1206017855322D-01  2.207D-04
   15.175000   -5.1204045625832D-01  2.201D-04
   15.200000   -5.1202093196584D-01  2.195D-04
   15.225000   -5.1200160360229D-01  2.189D-04
   15.250000   -5.1198246911415D-01  2.183D-04
   15.275000   -5.1196352646771D-01  2.177D-04
   15.300000   -5.1194477364903D-01  2.171D-04
   15.325000   -5.1192620866377D-01  2.165D-04
   15.350000   -5.1190782953715D-01  2.159D-04
   15.375000   -5.1188963431374D-01  2.154D-04
   15.400000   -5.1187162105744D-01  2.148D-04
   15.425000   -5.1185378785130D-01  2.142D-04
   15.450000   -5.1183613279742D-01  2.136D-04
   15.475000   -5.1181865401683D-01  2.131D-04
   15.500000   -5.1180134964936D-01  2.125D-04
   15.525000   -5.1178421785351D-01  2.119D-04
   15.550000   -5.1176725680634D-01  2.114D-04
   15.575000   -5.1175046470331D-01  2.108D-04
   15.600000   -5.1173383975821D-01  2.102D-04
   15.625000   -5.1171738020294D-01  2.097D-04
   15.650000   -5.1170108428746D-01  2.091D-04
   15.675000   -5.1168495027961D-01  2.086D-04