
variables = "r", "UA(r)", "Uncertainty"
zone T = "State 1 UA(r)  66N09p6q2Rf4_8_C3ReD"

    2.200000    1.6249605265221D-01  2.273D-02
    2.225000    1.6225580038676D-01  2.270D-02
    2.250000    1.6200243690430D-01  2.266D-02
    2.275000    1.6173545872937D-01  2.263D-02
    2.300000    1.6145435565721D-01  2.259D-02
    2.325000    1.6115861153072D-01  2.255D-02
    2.350000    1.6084770508765D-01  2.250D-02
    2.375000    1.6052111087960D-01  2.246D-02
    2.400000    1.6017830026433D-01  2.241D-02
    2.425000    1.5981874247235D-01  2.236D-02
    2.450000    1.5944190574860D-01  2.231D-02
    2.475000    1.5904725856942D-01  2.225D-02
    2.500000    1.5863427093481D-01  2.219D-02
    2.525000    1.5820241573531D-01  2.213D-02
    2.550000    1.5775117019235D-01  2.207D-02
    2.575000    1.5728001737048D-01  2.200D-02
    2.600000    1.5678844775903D-01  2.194D-02
    2.625000    1.5627596092044D-01  2.186D-02
    2.650000    1.5574206720146D-01  2.179D-02
    2.675000    1.5518628950313D-01  2.171D-02
    2.700000    1.5460816510427D-01  2.163D-02
    2.725000    1.5400724753290D-01  2.155D-02
    2.750000    1.5338310847883D-01  2.146D-02
    2.775000    1.5273533974031D-01  2.137D-02
    2.800000    1.5206355519647D-01  2.127D-02
    2.825000    1.5136739279683D-01  2.118D-02
    2.850000    1.5064651655828D-01  2.108D-02
    2.875000    1.4990061855914D-01  2.097D-02
    2.900000    1.4912942091953D-01  2.086D-02
    2.925000    1.4833267775635D-01  2.075D-02
    2.950000    1.4751017710081D-01  2.064D-02
    2.975000    1.4666174276595D-01  2.052D-02
    3.000000    1.4578723615120D-01  2.040D-02
    3.025000    1.4488655797062D-01  2.027D-02
    3.050000    1.4395964989159D-01  2.014D-02
    3.075000    1.4300649607025D-01  2.001D-02
    3.100000    1.4202712457050D-01  1.987D-02
    3.125000    1.4102160865312D-01  1.973D-02
    3.150000    1.3999006792239D-01  1.959D-02
    3.175000    1.3893266931761D-01  1.944D-02
    3.200000    1.3784962793801D-01  1.929D-02
    3.225000    1.3674120768997D-01  1.913D-02
    3.250000    1.3560772174662D-01  1.897D-02
    3.275000    1.3444953281095D-01  1.881D-02
    3.300000    1.3326705317463D-01  1.864D-02
    3.325000    1.3206074456628D-01  1.848D-02
    3.350000    1.3083111778436D-01  1.830D-02
    3.375000    1.2957873211125D-01  1.813D-02
    3.400000    1.2830419450684D-01  1.795D-02
    3.425000    1.2700815858189D-01  1.777D-02
    3.450000    1.2569132335273D-01  1.758D-02
    3.475000    1.2435443178104D-01  1.740D-02
    3.500000    1.2299826910409D-01  1.721D-02
    3.525000    1.2162366096266D-01  1.702D-02
    3.550000    1.2023147133544D-01  1.682D-02
    3.575000    1.1882260029065D-01  1.662D-02
    3.600000    1.1739798156695D-01  1.642D-02
    3.625000    1.1595857999729D-01  1.622D-02
    3.650000    1.1450538879068D-01  1.602D-02
    3.675000    1.1303942668809D-01  1.581D-02
    3.700000    1.1156173500961D-01  1.561D-02
    3.725000    1.1007337461102D-01  1.540D-02
    3.750000    1.0857542276830D-01  1.519D-02
    3.775000    1.0706897000953D-01  1.498D-02
    3.800000    1.0555511691336D-01  1.477D-02
    3.825000    1.0403497089368D-01  1.455D-02
    3.850000    1.0250964298995D-01  1.434D-02
    3.875000    1.0098024468197D-01  1.413D-02
    3.900000    9.9447884747927D-02  1.391D-02
    3.925000    9.7913666183301D-02  1.370D-02
    3.950000    9.6378683197684D-02  1.348D-02
    3.975000    9.4844018305499D-02  1.327D-02
    4.000000    9.3310739525378D-02  1.305D-02
    4.025000    9.1779897701784D-02  1.284D-02
    4.050000    9.0252523961094D-02  1.263D-02
    4.075000    8.8729627312926D-02  1.241D-02
    4.100000    8.7212192406020D-02  1.220D-02
    4.125000    8.5701177446510D-02  1.199D-02
    4.150000    8.4197512284834D-02  1.178D-02
    4.175000    8.2702096676088D-02  1.157D-02
    4.200000    8.1215798717080D-02  1.136D-02
    4.225000    7.9739453461918D-02  1.116D-02
    4.250000    7.8273861716559D-02  1.095D-02
    4.275000    7.6819789011419D-02  1.075D-02
    4.300000    7.5377964749888D-02  1.055D-02
    4.325000    7.3949081529454D-02  1.035D-02
    4.350000    7.2533794631038D-02  1.015D-02
    4.375000    7.1132721671243D-02  9.952D-03
    4.400000    6.9746442411294D-02  9.758D-03
    4.425000    6.8375498715777D-02  9.566D-03
    4.450000    6.7020394653588D-02  9.376D-03
    4.475000    6.5681596733026D-02  9.189D-03
    4.500000    6.4359534262513D-02  9.004D-03
    4.525000    6.3054599828135D-02  8.822D-03
    4.550000    6.1767149878957D-02  8.642D-03
    4.575000    6.0497505410960D-02  8.464D-03
    4.600000    5.9245952740399D-02  8.289D-03
    4.625000    5.8012744357439D-02  8.116D-03
    4.650000    5.6798099851008D-02  7.946D-03
    4.675000    5.5602206896035D-02  7.779D-03
    4.700000    5.4425222294432D-02  7.614D-03
    4.725000    5.3267273061496D-02  7.452D-03
    4.750000    5.2128457549732D-02  7.293D-03
    4.775000    5.1008846602460D-02  7.136D-03
    4.800000    4.9908484729971D-02  6.982D-03
    4.825000    4.8827391301400D-02  6.831D-03
    4.850000    4.7765561745955D-02  6.683D-03
    4.875000    4.6722968757524D-02  6.537D-03
    4.900000    4.5699563497213D-02  6.394D-03
    4.925000    4.4695276788729D-02  6.253D-03
    4.950000    4.3710020302050D-02  6.115D-03
    4.975000    4.2743687721208D-02  5.980D-03
    5.000000    4.1796155892468D-02  5.847D-03
    5.025000    4.0867285949594D-02  5.718D-03
    5.050000    3.9956924413297D-02  5.590D-03
    5.075000    3.9064904262328D-02  5.465D-03
    5.100000    3.8191045974083D-02  5.343D-03
    5.125000    3.7335158532870D-02  5.223D-03
    5.150000    3.6497040404380D-02  5.106D-03
    5.175000    3.5676480475151D-02  4.991D-03
    5.200000    3.4873258956123D-02  4.879D-03
    5.225000    3.4087148249641D-02  4.769D-03
    5.250000    3.3317913779493D-02  4.661D-03
    5.275000    3.2565314783784D-02  4.556D-03
    5.300000    3.1829105070666D-02  4.453D-03
    5.325000    3.1109033737094D-02  4.352D-03
    5.350000    3.0404845850956D-02  4.254D-03
    5.375000    2.9716283097057D-02  4.157D-03
    5.400000    2.9043084387574D-02  4.063D-03
    5.425000    2.8384986437683D-02  3.971D-03
    5.450000    2.7741724307181D-02  3.881D-03
    5.475000    2.7113031908980D-02  3.793D-03
    5.500000    2.6498642485435D-02  3.707D-03
    5.525000    2.5898289053509D-02  3.623D-03
    5.550000    2.5311704819828D-02  3.541D-03
    5.575000    2.4738623566715D-02  3.461D-03
    5.600000    2.4178780010293D-02  3.383D-03
    5.625000    2.3631910131806D-02  3.306D-03
    5.650000    2.3097751483264D-02  3.231D-03
    5.675000    2.2576043468559D-02  3.158D-03
    5.700000    2.2066527601178D-02  3.087D-03
    5.725000    2.1568947739611D-02  3.018D-03
    5.750000    2.1083050301590D-02  2.950D-03
    5.775000    2.0608584458209D-02  2.883D-03
    5.800000    2.0145302309002D-02  2.818D-03
    5.825000    1.9692959039021D-02  2.755D-03
    5.850000    1.9251313058904D-02  2.693D-03
    5.875000    1.8820126128930D-02  2.633D-03
    5.900000    1.8399163468001D-02  2.574D-03
    5.925000    1.7988193848468D-02  2.517D-03
    5.950000    1.7586989677685D-02  2.461D-03
    5.975000    1.7195327067134D-02  2.406D-03
    6.000000    1.6812985889953D-02  2.352D-03
    6.025000    1.6439749827622D-02  2.300D-03
    6.050000    1.6075406406580D-02  2.249D-03
    6.075000    1.5719747025465D-02  2.199D-03
    6.100000    1.5372566973669D-02  2.151D-03
    6.125000    1.5033665441844D-02  2.103D-03
    6.150000    1.4702845524989D-02  2.057D-03
    6.175000    1.4379914218676D-02  2.012D-03
    6.200000    1.4064682408988D-02  1.968D-03
    6.225000    1.3756964856682D-02  1.925D-03
    6.250000    1.3456580176067D-02  1.883D-03
    6.275000    1.3163350809064D-02  1.842D-03
    6.300000    1.2877102994888D-02  1.802D-03
    6.325000    1.2597666735761D-02  1.762D-03
    6.350000    1.2324875759039D-02  1.724D-03
    6.375000    1.2058567476121D-02  1.687D-03
    6.400000    1.1798582938484D-02  1.651D-03
    6.425000    1.1544766791143D-02  1.615D-03
    6.450000    1.1296967223858D-02  1.580D-03
    6.475000    1.1055035920346D-02  1.547D-03
    6.500000    1.0818828005767D-02  1.514D-03
    6.525000    1.0588201992715D-02  1.481D-03
    6.550000    1.0363019725950D-02  1.450D-03
    6.575000    1.0143146326065D-02  1.419D-03
    6.600000    9.9284501322872D-03  1.389D-03
    6.625000    9.7188026445942D-03  1.360D-03
    6.650000    9.5140784652969D-03  1.331D-03
    6.675000    9.3141552402530D-03  1.303D-03
    6.700000    9.1189135998439D-03  1.276D-03
    6.725000    8.9282370998429D-03  1.249D-03
    6.750000    8.7420121622932D-03  1.223D-03
    6.775000    8.5601280165021D-03  1.198D-03
    6.800000    8.3824766402486D-03  1.173D-03
    6.825000    8.2089527012936D-03  1.148D-03
    6.850000    8.0394534992738D-03  1.125D-03
    6.875000    7.8738789080508D-03  1.102D-03
    6.900000    7.7121313185825D-03  1.079D-03
    6.925000    7.5541155823751D-03  1.057D-03
    6.950000    7.3997389555684D-03  1.035D-03
    6.975000    7.2489110437013D-03  1.014D-03
    7.000000    7.1015437472002D-03  9.935D-04
    7.025000    6.9575512076244D-03  9.734D-04
    7.050000    6.8168497547028D-03  9.537D-04
    7.075000    6.6793578541879D-03  9.345D-04
    7.100000    6.5449960565518D-03  9.157D-04
    7.125000    6.4136869465422D-03  8.973D-04
    7.150000    6.2853550936173D-03  8.794D-04
    7.175000    6.1599270032709D-03  8.618D-04
    7.200000    6.0373310692593D-03  8.447D-04
    7.225000    5.9174975267368D-03  8.279D-04
    7.250000    5.8003584063066D-03  8.115D-04
    7.275000    5.6858474889880D-03  7.955D-04
    7.300000    5.5739002621036D-03  7.798D-04
    7.325000    5.4644538760835D-03  7.645D-04
    7.350000    5.3574471021854D-03  7.495D-04
    7.375000    5.2528202911255D-03  7.349D-04
    7.400000    5.1505153326159D-03  7.206D-04
    7.425000    5.0504756158016D-03  7.066D-04
    7.450000    4.9526459905881D-03  6.929D-04
    7.475000    4.8569727298530D-03  6.795D-04
    7.500000    4.7634034925297D-03  6.664D-04
    7.525000    4.6718872875543D-03  6.536D-04
    7.550000    4.5823744386640D-03  6.411D-04
    7.575000    4.4948165500345D-03  6.288D-04
    7.600000    4.4091664727452D-03  6.169D-04
    7.625000    4.3253782720592D-03  6.051D-04
    7.650000    4.2434071955034D-03  5.937D-04
    7.675000    4.1632096417373D-03  5.825D-04
    7.700000    4.0847431301950D-03  5.715D-04
    7.725000    4.0079662714876D-03  5.607D-04
    7.750000    3.9328387385503D-03  5.502D-04
    7.775000    3.8593212385212D-03  5.399D-04
    7.800000    3.7873754853369D-03  5.299D-04
    7.825000    3.7169641730297D-03  5.200D-04
    7.850000    3.6480509497128D-03  5.104D-04
    7.875000    3.5806003922386D-03  5.009D-04
    7.900000    3.5145779815154D-03  4.917D-04
    7.925000    3.4499500784681D-03  4.827D-04
    7.950000    3.3866839006292D-03  4.738D-04
    7.975000    3.3247474993449D-03  4.651D-04
    8.000000    3.2641097375829D-03  4.567D-04
    8.025000    3.2047402683274D-03  4.484D-04
    8.050000    3.1466095135477D-03  4.402D-04
    8.075000    3.0896886437273D-03  4.323D-04
    8.100000    3.0339495579390D-03  4.245D-04
    8.125000    2.9793648644534D-03  4.168D-04
    8.150000    2.9259078618674D-03  4.093D-04
    8.175000    2.8735525207403D-03  4.020D-04
    8.200000    2.8222734657241D-03  3.948D-04
    8.225000    2.7720459581766D-03  3.878D-04
    8.250000    2.7228458792435D-03  3.809D-04
    8.275000    2.6746497133994D-03  3.742D-04
    8.300000    2.6274345324345D-03  3.676D-04
    8.325000    2.5811779798759D-03  3.611D-04
    8.350000    2.5358582558327D-03  3.548D-04
    8.375000    2.4914541022529D-03  3.486D-04
    8.400000    2.4479447885820D-03  3.425D-04
    8.425000    2.4053100978128D-03  3.365D-04
    8.450000    2.3635303129147D-03  3.307D-04
    8.475000    2.3225862036347D-03  3.249D-04
    8.500000    2.2824590136579D-03  3.193D-04
    8.525000    2.2431304481191D-03  3.138D-04
    8.550000    2.2045826614556D-03  3.084D-04
    8.575000    2.1667982455927D-03  3.031D-04
    8.600000    2.1297602184512D-03  2.980D-04
    8.625000    2.0934520127706D-03  2.929D-04
    8.650000    2.0578574652367D-03  2.879D-04
    8.675000    2.0229608059077D-03  2.830D-04
    8.700000    1.9887466479289D-03  2.782D-04
    8.725000    1.9551999775290D-03  2.735D-04
    8.750000    1.9223061442896D-03  2.689D-04
    8.775000    1.8900508516813D-03  2.644D-04
    8.800000    1.8584201478582D-03  2.600D-04
    8.825000    1.8274004167034D-03  2.557D-04
    8.850000    1.7969783691201D-03  2.514D-04
    8.875000    1.7671410345596D-03  2.472D-04
    8.900000    1.7378757527807D-03  2.431D-04
    8.925000    1.7091701658340D-03  2.391D-04
    8.950000    1.6810122102643D-03  2.352D-04
    8.975000    1.6533901095261D-03  2.313D-04
    9.000000    1.6262923666045D-03  2.275D-04
    9.025000    1.5997077568374D-03  2.238D-04
    9.050000    1.5736253209333D-03  2.202D-04
    9.075000    1.5480343581773D-03  2.166D-04
    9.100000    1.5229244198230D-03  2.131D-04
    9.125000    1.4982853026622D-03  2.096D-04
    9.150000    1.4741070427698D-03  2.062D-04
    9.175000    1.4503799094173D-03  2.029D-04
    9.200000    1.4270943991513D-03  1.997D-04
    9.225000    1.4042412300312D-03  1.965D-04
    9.250000    1.3818113360233D-03  1.933D-04
    9.275000    1.3597958615452D-03  1.902D-04
    9.300000    1.3381861561575D-03  1.872D-04
    9.325000    1.3169737693980D-03  1.843D-04
    9.350000    1.2961504457545D-03  1.813D-04
    9.375000    1.2757081197729D-03  1.785D-04
    9.400000    1.2556389112964D-03  1.757D-04
    9.425000    1.2359351208312D-03  1.729D-04
    9.450000    1.2165892250370D-03  1.702D-04
    9.475000    1.1975938723376D-03  1.675D-04
    9.500000    1.1789418786487D-03  1.649D-04
    9.525000    1.1606262232187D-03  1.624D-04
    9.550000    1.1426400445809D-03  1.599D-04
    9.575000    1.1249766366128D-03  1.574D-04
    9.600000    1.1076294447001D-03  1.550D-04
    9.625000    1.0905920620020D-03  1.526D-04
    9.650000    1.0738582258153D-03  1.502D-04
    9.675000    1.0574218140347D-03  1.479D-04
    9.700000    1.0412768417065D-03  1.457D-04
    9.725000    1.0254174576723D-03  1.435D-04
    9.750000    1.0098379413018D-03  1.413D-04
    9.775000    9.9453269931114D-04  1.391D-04
    9.800000    9.7949626266420D-04  1.370D-04
    9.825000    9.6472328355544D-04  1.350D-04
    9.850000    9.5020853247136D-04  1.329D-04
    9.875000    9.3594689532877D-04  1.309D-04
    9.900000    9.2193337068741D-04  1.290D-04
    9.925000    9.0816306703525D-04  1.271D-04
    9.950000    8.9463120014410D-04  1.252D-04
    9.975000    8.8133309049394D-04  1.233D-04
   10.000000    8.6826416076381D-04  1.215D-04
   10.025000    8.5541993338751D-04  1.197D-04
   10.050000    8.4279602817251D-04  1.179D-04
   10.075000    8.3038815997997D-04  1.162D-04
   10.100000    8.1819213646463D-04  1.145D-04
   10.125000    8.0620385587257D-04  1.128D-04
   10.150000    7.9441930489544D-04  1.111D-04
   10.175000    7.8283455657966D-04  1.095D-04
   10.200000    7.7144576828890D-04  1.079D-04
   10.225000    7.6024917971866D-04  1.064D-04
   10.250000    7.4924111096126D-04  1.048D-04
   10.275000    7.3841796062007D-04  1.033D-04
   10.300000    7.2777620397156D-04  1.018D-04
   10.325000    7.1731239117393D-04  1.004D-04
   10.350000    7.0702314552094D-04  9.892D-05
   10.375000    6.9690516173990D-04  9.750D-05
   10.400000    6.8695520433253D-04  9.611D-05
   10.425000    6.7717010595746D-04  9.474D-05
   10.450000    6.6754676585343D-04  9.339D-05
   10.475000    6.5808214830197D-04  9.207D-05
   10.500000    6.4877328112855D-04  9.077D-05
   10.525000    6.3961725424111D-04  8.949D-05
   10.550000    6.3061121820512D-04  8.823D-05
   10.575000    6.2175238285399D-04  8.699D-05
   10.600000    6.1303801593407D-04  8.577D-05
   10.625000    6.0446544178323D-04  8.457D-05
   10.650000    5.9603204004211D-04  8.339D-05
   10.675000    5.8773524439725D-04  8.223D-05
   10.700000    5.7957254135522D-04  8.108D-05
   10.725000    5.7154146904689D-04  7.996D-05
   10.750000    5.6363961606114D-04  7.886D-05
   10.775000    5.5586462030708D-04  7.777D-05
   10.800000    5.4821416790420D-04  7.670D-05
   10.825000    5.4068599209972D-04  7.564D-05
   10.850000    5.3327787221212D-04  7.461D-05
   10.875000    5.2598763260065D-04  7.359D-05
   10.900000    5.1881314165969D-04  7.258D-05
   10.925000    5.1175231083767D-04  7.160D-05
   10.950000    5.0480309367959D-04  7.062D-05
   10.975000    4.9796348489281D-04  6.967D-05
   11.000000    4.9123151943534D-04  6.873D-05
   11.025000    4.8460527162604D-04  6.780D-05
   11.050000    4.7808285427631D-04  6.689D-05
   11.075000    4.7166241784248D-04  6.599D-05
   11.100000    4.6534214959864D-04  6.510D-05
   11.125000    4.5912027282916D-04  6.423D-05
   11.150000    4.5299504604051D-04  6.338D-05
   11.175000    4.4696476219181D-04  6.253D-05
   11.200000    4.4102774794377D-04  6.170D-05
   11.225000    4.3518236292530D-04  6.088D-05
   11.250000    4.2942699901770D-04  6.008D-05
   11.275000    4.2376007965553D-04  5.929D-05
   11.300000    4.1818005914420D-04  5.851D-05
   11.325000    4.1268542199348D-04  5.774D-05
   11.350000    4.0727468226677D-04  5.698D-05
   11.375000    4.0194638294561D-04  5.623D-05
   11.400000    3.9669909530906D-04  5.550D-05
   11.425000    3.9153141832758D-04  5.478D-05
   11.450000    3.8644197807118D-04  5.407D-05
   11.475000    3.8142942713111D-04  5.336D-05
   11.500000    3.7649244405532D-04  5.267D-05
   11.525000    3.7162973279668D-04  5.199D-05
   11.550000    3.6684002217426D-04  5.132D-05
   11.575000    3.6212206534689D-04  5.066D-05
   11.600000    3.5747463929900D-04  5.001D-05
   11.625000    3.5289654433817D-04  4.937D-05
   11.650000    3.4838660360433D-04  4.874D-05
   11.675000    3.4394366259023D-04  4.812D-05
   11.700000    3.3956658867279D-04  4.751D-05
   11.725000    3.3525427065527D-04  4.690D-05
   11.750000    3.3100561831990D-04  4.631D-05
   11.775000    3.2681956199059D-04  4.572D-05
   11.800000    3.2269505210566D-04  4.515D-05
   11.825000    3.1863105880031D-04  4.458D-05
   11.850000    3.1462657149842D-04  4.402D-05
   11.875000    3.1068059851373D-04  4.347D-05
   11.900000    3.0679216665991D-04  4.292D-05
   11.925000    3.0296032086944D-04  4.239D-05
   11.950000    2.9918412382109D-04  4.186D-05
   11.975000    2.9546265557577D-04  4.134D-05
   12.000000    2.9179501322046D-04  4.082D-05
   12.025000    2.8818031052021D-04  4.032D-05
   12.050000    2.8461767757781D-04  3.982D-05
   12.075000    2.8110626050111D-04  3.933D-05
   12.100000    2.7764522107768D-04  3.884D-05
   12.125000    2.7423373645680D-04  3.837D-05
   12.150000    2.7087099883832D-04  3.790D-05
   12.175000    2.6755621516862D-04  3.743D-05
   12.200000    2.6428860684304D-04  3.698D-05
   12.225000    2.6106740941510D-04  3.652D-05
   12.250000    2.5789187231195D-04  3.608D-05
   12.275000    2.5476125855613D-04  3.564D-05
   12.300000    2.5167484449344D-04  3.521D-05
   12.325000    2.4863191952673D-04  3.478D-05
   12.350000    2.4563178585552D-04  3.437D-05
   12.375000    2.4267375822131D-04  3.395D-05
   12.400000    2.3975716365837D-04  3.354D-05
   12.425000    2.3688134125002D-04  3.314D-05
   12.450000    2.3404564189014D-04  3.274D-05
   12.475000    2.3124942804986D-04  3.235D-05
   12.500000    2.2849207354930D-04  3.197D-05
   12.525000    2.2577296333417D-04  3.159D-05
   12.550000    2.2309149325726D-04  3.121D-05
   12.575000    2.2044706986459D-04  3.084D-05
   12.600000    2.1783911018608D-04  3.048D-05
   12.625000    2.1526704153082D-04  3.012D-05
   12.650000    2.1273030128665D-04  2.976D-05
   12.675000    2.1022833672397D-04  2.941D-05
   12.700000    2.0776060480381D-04  2.907D-05
   12.725000    2.0532657198991D-04  2.873D-05
   12.750000    2.0292571406484D-04  2.839D-05
   12.775000    2.0055751594994D-04  2.806D-05
   12.800000    1.9822147152918D-04  2.773D-05
   12.825000    1.9591708347663D-04  2.741D-05
   12.850000    1.9364386308757D-04  2.709D-05
   12.875000    1.9140133011323D-04  2.678D-05
   12.900000    1.8918901259888D-04  2.647D-05
   12.925000    1.8700644672544D-04  2.616D-05
   12.950000    1.8485317665432D-04  2.586D-05
   12.975000    1.8272875437548D-04  2.556D-05
   13.000000    1.8063273955871D-04  2.527D-05
   13.025000    1.7856469940799D-04  2.498D-05
   13.050000    1.7652420851884D-04  2.470D-05
   13.075000    1.7451084873868D-04  2.441D-05
   13.100000    1.7252420903002D-04  2.414D-05
   13.125000    1.7056388533650D-04  2.386D-05
   13.150000    1.6862948045169D-04  2.359D-05
   13.175000    1.6672060389063D-04  2.333D-05
   13.200000    1.6483687176391D-04  2.306D-05
   13.225000    1.6297790665442D-04  2.280D-05
   13.250000    1.6114333749660D-04  2.254D-05
   13.275000    1.5933279945810D-04  2.229D-05
   13.300000    1.5754593382394D-04  2.204D-05
   13.325000    1.5578238788303D-04  2.179D-05
   13.350000    1.5404181481682D-04  2.155D-05
   13.375000    1.5232387359047D-04  2.131D-05
   13.400000    1.5062822884606D-04  2.107D-05
   13.425000    1.4895455079794D-04  2.084D-05
   13.450000    1.4730251513033D-04  2.061D-05
   13.475000    1.4567180289683D-04  2.038D-05
   13.500000    1.4406210042204D-04  2.015D-05
   13.525000    1.4247309920512D-04  1.993D-05
   13.550000    1.4090449582535D-04  1.971D-05
   13.575000    1.3935599184943D-04  1.950D-05
   13.600000    1.3782729374079D-04  1.928D-05
   13.625000    1.3631811277063D-04  1.907D-05
   13.650000    1.3482816493074D-04  1.886D-05
   13.675000    1.3335717084801D-04  1.866D-05
   13.700000    1.3190485570075D-04  1.845D-05
   13.725000    1.3047094913656D-04  1.825D-05
   13.750000    1.2905518519182D-04  1.806D-05
   13.775000    1.2765730221286D-04  1.786D-05
   13.800000    1.2627704277861D-04  1.767D-05
   13.825000    1.2491415362476D-04  1.748D-05
   13.850000    1.2356838556949D-04  1.729D-05
   13.875000    1.2223949344054D-04  1.710D-05
   13.900000    1.2092723600380D-04  1.692D-05
   13.925000    1.1963137589326D-04  1.674D-05
   13.950000    1.1835167954232D-04  1.656D-05
   13.975000    1.1708791711644D-04  1.638D-05
   14.000000    1.1583986244711D-04  1.621D-05
   14.025000    1.1460729296707D-04  1.603D-05
   14.050000    1.1338998964683D-04  1.586D-05
   14.075000    1.1218773693237D-04  1.570D-05
   14.100000    1.1100032268409D-04  1.553D-05
   14.125000    1.0982753811687D-04  1.537D-05
   14.150000    1.0866917774136D-04  1.520D-05
   14.175000    1.0752503930631D-04  1.504D-05
   14.200000    1.0639492374214D-04  1.489D-05
   14.225000    1.0527863510538D-04  1.473D-05
   14.250000    1.0417598052441D-04  1.457D-05
   14.275000    1.0308677014603D-04  1.442D-05
   14.300000    1.0201081708322D-04  1.427D-05
   14.325000    1.0094793736372D-04  1.412D-05
   14.350000    9.9897949879716D-05  1.398D-05
   14.375000    9.8860676338444D-05  1.383D-05
   14.400000    9.7835941213713D-05  1.369D-05
   14.425000    9.6823571698322D-05  1.355D-05
   14.450000    9.5823397657436D-05  1.341D-05
   14.475000    9.4835251582808D-05  1.327D-05
   14.500000    9.3858968547808D-05  1.313D-05
   14.525000    9.2894386163399D-05  1.300D-05
   14.550000    9.1941344534849D-05  1.286D-05
   14.575000    9.0999686219304D-05  1.273D-05
   14.600000    9.0069256184128D-05  1.260D-05
   14.625000    8.9149901766007D-05  1.247D-05
   14.650000    8.8241472630855D-05  1.235D-05
   14.675000    8.7343820734424D-05  1.222D-05
   14.700000    8.6456800283679D-05  1.210D-05
   14.725000    8.5580267698846D-05  1.197D-05
   14.750000    8.4714081576201D-05  1.185D-05
   14.775000    8.3858102651525D-05  1.173D-05
   14.800000    8.3012193764218D-05  1.161D-05
   14.825000    8.2176219822132D-05  1.150D-05
   14.850000    8.1350047766962D-05  1.138D-05
   14.875000    8.0533546540333D-05  1.127D-05
   14.900000    7.9726587050501D-05  1.115D-05
   14.925000    7.8929042139644D-05  1.104D-05
   14.950000    7.8140786551757D-05  1.093D-05
   14.975000    7.7361696901134D-05  1.082D-05
   15.000000    7.6591651641402D-05  1.072D-05
   15.025000    7.5830531035182D-05  1.061D-05
   15.050000    7.5078217124215D-05  1.050D-05
   15.075000    7.4334593700069D-05  1.040D-05
   15.100000    7.3599546275389D-05  1.030D-05
   15.125000    7.2872962055642D-05  1.020D-05
   15.150000    7.2154729911355D-05  1.009D-05
   15.175000    7.1444740350939D-05  9.995D-06
   15.200000    7.0742885493846D-05  9.897D-06
   15.225000    7.0049059044384D-05  9.800D-06
   15.250000    6.9363156265844D-05  9.704D-06
   15.275000    6.8685073955220D-05  9.609D-06
   15.300000    6.8014710418264D-05  9.516D-06
   15.325000    6.7351965445064D-05  9.423D-06
   15.350000    6.6696740286042D-05  9.331D-06
   15.375000    6.6048937628351D-05  9.241D-06
   15.400000    6.5408461572706D-05  9.151D-06
   15.425000    6.4775217610642D-05  9.062D-06
   15.450000    6.4149112602142D-05  8.975D-06
   15.475000    6.3530054753668D-05  8.888D-06
   15.500000    6.2917953596604D-05  8.803D-06
   15.525000    6.2312719966061D-05  8.718D-06
   15.550000    6.1714265980013D-05  8.634D-06
   15.575000    6.1122505018905D-05  8.551D-06
   15.600000    6.0537351705483D-05  8.469D-06
   15.625000    5.9958721885083D-05  8.389D-06
   15.650000    5.9386532606224D-05  8.308D-06
   15.675000    5.8820702101513D-05  8.229D-06
   15.700000    5.8261149768943D-05  8.151D-06
   15.725000    5.7707796153461D-05  8.074D-06
   15.750000    5.7160562928869D-05  7.997D-06
   15.775000    5.6619372880068D-05  7.921D-06
   15.800000    5.6084149885578D-05  7.846D-06
   15.825000    5.5554818900344D-05  7.772D-06
   15.850000    5.5031305938897D-05  7.699D-06
   15.875000    5.4513538058752D-05  7.627D-06
   15.900000    5.4001443344105D-05  7.555D-06
   15.925000    5.3494950889820D-05  7.484D-06
   15.950000    5.2993990785668D-05  7.414D-06
   15.975000    5.2498494100886D-05  7.345D-06
   16.000000    5.2008392868936D-05  7.276D-06
   16.025000    5.1523620072545D-05  7.208D-06
   16.050000    5.1044109629012D-05  7.141D-06
   16.075000    5.0569796375785D-05  7.075D-06
   16.100000    5.0100616056233D-05  7.009D-06
   16.125000    4.9636505305686D-05  6.944D-06
   16.150000    4.9177401637712D-05  6.880D-06
   16.175000    4.8723243430603D-05  6.817D-06
   16.200000    4.8273969914148D-05  6.754D-06
   16.225000    4.7829521156541D-05  6.692D-06
   16.250000    4.7389838051588D-05  6.630D-06
   16.275000    4.6954862306087D-05  6.569D-06
   16.300000    4.6524536427429D-05  6.509D-06
   16.325000    4.6098803711411D-05  6.449D-06
   16.350000    4.5677608230245D-05  6.391D-06
   16.375000    4.5260894820763D-05  6.332D-06
   16.400000    4.4848609072855D-05  6.275D-06
   16.425000    4.4440697318039D-05  6.217D-06
   16.450000    4.4037106618257D-05  6.161D-06
   16.475000    4.3637784754856D-05  6.105D-06
   16.500000    4.3242680217786D-05  6.050D-06
   16.525000    4.2851742194866D-05  5.995D-06
   16.550000    4.2464920561349D-05  5.941D-06
   16.575000    4.2082165869609D-05  5.887D-06
   16.600000    4.1703429338978D-05  5.835D-06
   16.625000    4.1328662845781D-05  5.782D-06
   16.650000    4.0957818913531D-05  5.730D-06
   16.675000    4.0590850703266D-05  5.679D-06
   16.700000    4.0227712004049D-05  5.628D-06
   16.725000    3.9868357223671D-05  5.578D-06
   16.750000    3.9512741379422D-05  5.528D-06
   16.775000    3.9160820089049D-05  5.479D-06
   16.800000    3.8812549561930D-05  5.430D-06
   16.825000    3.8467886590247D-05  5.382D-06
   16.850000    3.8126788540457D-05  5.334D-06
   16.875000    3.7789213344786D-05  5.287D-06
   16.900000    3.7455119492899D-05  5.240D-06
   16.925000    3.7124466023733D-05  5.194D-06
   16.950000    3.6797212517450D-05  5.148D-06
   16.975000    3.6473319087437D-05  5.103D-06
   17.000000    3.6152746372586D-05  5.058D-06
   17.025000    3.5835455529583D-05  5.014D-06
   17.050000    3.5521408225328D-05  4.970D-06
   17.075000    3.5210566629559D-05  4.926D-06
   17.100000    3.4902893407486D-05  4.883D-06
   17.125000    3.4598351712606D-05  4.840D-06
   17.150000    3.4296905179660D-05  4.798D-06
   17.175000    3.3998517917615D-05  4.757D-06
   17.200000    3.3703154502814D-05  4.715D-06
   17.225000    3.3410779972240D-05  4.674D-06
   17.250000    3.3121359816885D-05  4.634D-06
   17.275000    3.2834859975176D-05  4.594D-06
   17.300000    3.2551246826553D-05  4.554D-06
   17.325000    3.2270487185168D-05  4.515D-06
   17.350000    3.1992548293617D-05  4.476D-06
   17.375000    3.1717397816793D-05  4.437D-06
   17.400000    3.1445003835899D-05  4.399D-06
   17.425000    3.1175334842456D-05  4.362D-06
   17.450000    3.0908359732481D-05  4.324D-06
   17.475000    3.0644047800726D-05  4.287D-06
   17.500000    3.0382368734967D-05  4.251D-06
   17.525000    3.0123292610499D-05  4.214D-06
   17.550000    2.9866789884565D-05  4.179D-06
   17.575000    2.9612831391027D-05  4.143D-06
   17.600000    2.9361388334952D-05  4.108D-06
   17.625000    2.9112432287453D-05  4.073D-06
   17.650000    2.8865935180482D-05  4.038D-06
   17.675000    2.8621869301755D-05  4.004D-06
   17.700000    2.8380207289764D-05  3.971D-06
   17.725000    2.8140922128860D-05  3.937D-06
   17.750000    2.7903987144369D-05  3.904D-06