
variables = "r", "UA(r)", "Uncertainty"
zone T = "State 1 UA(r)  66N9p6q3Rf3_6R      "

    2.200000    1.3117152034960D-01  2.354D-02
    2.225000    1.3097758230760D-01  2.351D-02
    2.250000    1.3077306053949D-01  2.347D-02
    2.275000    1.3055754862614D-01  2.343D-02
    2.300000    1.3033063471635D-01  2.339D-02
    2.325000    1.3009190215396D-01  2.335D-02
    2.350000    1.2984093016179D-01  2.330D-02
    2.375000    1.2957729458344D-01  2.326D-02
    2.400000    1.2930056868432D-01  2.321D-02
    2.425000    1.2901032401263D-01  2.315D-02
    2.450000    1.2870613132093D-01  2.310D-02
    2.475000    1.2838756154854D-01  2.304D-02
    2.500000    1.2805418686467D-01  2.298D-02
    2.525000    1.2770558177179D-01  2.292D-02
    2.550000    1.2734132426835D-01  2.285D-02
    2.575000    1.2696099706943D-01  2.279D-02
    2.600000    1.2656418888356D-01  2.272D-02
    2.625000    1.2615049574323D-01  2.264D-02
    2.650000    1.2571952238630D-01  2.256D-02
    2.675000    1.2527088368469D-01  2.248D-02
    2.700000    1.2480420611640D-01  2.240D-02
    2.725000    1.2431912927612D-01  2.231D-02
    2.750000    1.2381530741918D-01  2.222D-02
    2.775000    1.2329241103291D-01  2.213D-02
    2.800000    1.2275012842884D-01  2.203D-02
    2.825000    1.2218816734870D-01  2.193D-02
    2.850000    1.2160625657639D-01  2.183D-02
    2.875000    1.2100414754774D-01  2.172D-02
    2.900000    1.2038161594900D-01  2.161D-02
    2.925000    1.1973846329505D-01  2.149D-02
    2.950000    1.1907451847721D-01  2.137D-02
    2.975000    1.1838963927083D-01  2.125D-02
    3.000000    1.1768371379189D-01  2.112D-02
    3.025000    1.1695666189219D-01  2.099D-02
    3.050000    1.1620843648205D-01  2.086D-02
    3.075000    1.1543902476986D-01  2.072D-02
    3.100000    1.1464844940744D-01  2.058D-02
    3.125000    1.1383676953076D-01  2.043D-02
    3.150000    1.1300408168543D-01  2.028D-02
    3.175000    1.1215052062718D-01  2.013D-02
    3.200000    1.1127625998770D-01  1.997D-02
    3.225000    1.1038151279711D-01  1.981D-02
    3.250000    1.0946653185502D-01  1.965D-02
    3.275000    1.0853160994284D-01  1.948D-02
    3.300000    1.0757707987135D-01  1.931D-02
    3.325000    1.0660331435820D-01  1.913D-02
    3.350000    1.0561072573159D-01  1.895D-02
    3.375000    1.0459976545727D-01  1.877D-02
    3.400000    1.0357092348767D-01  1.859D-02
    3.425000    1.0252472743311D-01  1.840D-02
    3.450000    1.0146174155662D-01  1.821D-02
    3.475000    1.0038256559518D-01  1.802D-02
    3.500000    9.9287833411900D-02  1.782D-02
    3.525000    9.8178211484793D-02  1.762D-02
    3.550000    9.7054397239415D-02  1.742D-02
    3.575000    9.5917117233908D-02  1.721D-02
    3.600000    9.4767125206243D-02  1.701D-02
    3.625000    9.3605199994696D-02  1.680D-02
    3.650000    9.2432143343644D-02  1.659D-02
    3.675000    9.1248777607713D-02  1.638D-02
    3.700000    9.0055943368195D-02  1.616D-02
    3.725000    8.8854496976274D-02  1.595D-02
    3.750000    8.7645308038184D-02  1.573D-02
    3.775000    8.6429256857775D-02  1.551D-02
    3.800000    8.5207231852182D-02  1.529D-02
    3.825000    8.3980126956342D-02  1.507D-02
    3.850000    8.2748839032005D-02  1.485D-02
    3.875000    8.1514265296598D-02  1.463D-02
    3.900000    8.0277300786898D-02  1.441D-02
    3.925000    7.9038835871901D-02  1.419D-02
    3.950000    7.7799753828586D-02  1.396D-02
    3.975000    7.6560928493439D-02  1.374D-02
    4.000000    7.5323222001713D-02  1.352D-02
    4.025000    7.4087482625367D-02  1.330D-02
    4.050000    7.2854542719533D-02  1.308D-02
    4.075000    7.1625216786230D-02  1.286D-02
    4.100000    7.0400299662853D-02  1.264D-02
    4.125000    6.9180564841721D-02  1.242D-02
    4.150000    6.7966762925779D-02  1.220D-02
    4.175000    6.6759620224295D-02  1.198D-02
    4.200000    6.5559837491190D-02  1.177D-02
    4.225000    6.4368088807502D-02  1.155D-02
    4.250000    6.3185020608295D-02  1.134D-02
    4.275000    6.2011250853311D-02  1.113D-02
    4.300000    6.0847368339622D-02  1.092D-02
    4.325000    5.9693932153602D-02  1.071D-02
    4.350000    5.8551471258706D-02  1.051D-02
    4.375000    5.7420484214733D-02  1.031D-02
    4.400000    5.6301439023598D-02  1.010D-02
    4.425000    5.5194773096004D-02  9.906D-03
    4.450000    5.4100893332932D-02  9.710D-03
    4.475000    5.3020176315397D-02  9.516D-03
    4.500000    5.1952968595629D-02  9.324D-03
    4.525000    5.0899587082546D-02  9.135D-03
    4.550000    4.9860319514227D-02  8.949D-03
    4.575000    4.8835425010002D-02  8.765D-03
    4.600000    4.7825134694721D-02  8.583D-03
    4.625000    4.6829652387823D-02  8.405D-03
    4.650000    4.5849155349901D-02  8.229D-03
    4.675000    4.4883795079622D-02  8.056D-03
    4.700000    4.3933698154030D-02  7.885D-03
    4.725000    4.2998967105520D-02  7.717D-03
    4.750000    4.2079681329015D-02  7.552D-03
    4.775000    4.1175898013184D-02  7.390D-03
    4.800000    4.0287653089867D-02  7.231D-03
    4.825000    3.9414962196187D-02  7.074D-03
    4.850000    3.8557821644212D-02  6.920D-03
    4.875000    3.7716209393350D-02  6.769D-03
    4.900000    3.6890086021066D-02  6.621D-03
    4.925000    3.6079395687831D-02  6.475D-03
    4.950000    3.5284067092612D-02  6.333D-03
    4.975000    3.4504014415538D-02  6.193D-03
    5.000000    3.3739138244749D-02  6.055D-03
    5.025000    3.2989326484736D-02  5.921D-03
    5.050000    3.2254455243846D-02  5.789D-03
    5.075000    3.1534389698911D-02  5.660D-03
    5.100000    3.0828984935240D-02  5.533D-03
    5.125000    3.0138086760532D-02  5.409D-03
    5.150000    2.9461532491495D-02  5.288D-03
    5.175000    2.8799151712208D-02  5.169D-03
    5.200000    2.8150767003500D-02  5.052D-03
    5.225000    2.7516194642822D-02  4.938D-03
    5.250000    2.6895245274274D-02  4.827D-03
    5.275000    2.6287724548644D-02  4.718D-03
    5.300000    2.5693433733452D-02  4.611D-03
    5.325000    2.5112170293153D-02  4.507D-03
    5.350000    2.4543728439775D-02  4.405D-03
    5.375000    2.3987899654379D-02  4.305D-03
    5.400000    2.3444473179831D-02  4.208D-03
    5.425000    2.2913236485477D-02  4.112D-03
    5.450000    2.2393975704347D-02  4.019D-03
    5.475000    2.1886476043634D-02  3.928D-03
    5.500000    2.1390522169202D-02  3.839D-03
    5.525000    2.0905898564934D-02  3.752D-03
    5.550000    2.0432389867783D-02  3.667D-03
    5.575000    1.9969781179383D-02  3.584D-03
    5.600000    1.9517858355133D-02  3.503D-03
    5.625000    1.9076408271641D-02  3.424D-03
    5.650000    1.8645219073456D-02  3.346D-03
    5.675000    1.8224080399996D-02  3.271D-03
    5.700000    1.7812783593576D-02  3.197D-03
    5.725000    1.7411121889444D-02  3.125D-03
    5.750000    1.7018890588721D-02  3.054D-03
    5.775000    1.6635887215099D-02  2.986D-03
    5.800000    1.6261911656174D-02  2.919D-03
    5.825000    1.5896766290240D-02  2.853D-03
    5.850000    1.5540256099364D-02  2.789D-03
    5.875000    1.5192188769524D-02  2.727D-03
    5.900000    1.4852374778582D-02  2.666D-03
    5.925000    1.4520627472835D-02  2.606D-03
    5.950000    1.4196763132845D-02  2.548D-03
    5.975000    1.3880601029244D-02  2.491D-03
    6.000000    1.3571963469170D-02  2.436D-03
    6.025000    1.3270675833954D-02  2.382D-03
    6.050000    1.2976566608683D-02  2.329D-03
    6.075000    1.2689467404183D-02  2.277D-03
    6.100000    1.2409212972004D-02  2.227D-03
    6.125000    1.2135641212900D-02  2.178D-03
    6.150000    1.1868593179320D-02  2.130D-03
    6.175000    1.1607913072360D-02  2.083D-03
    6.200000    1.1353448233650D-02  2.038D-03
    6.225000    1.1105049132560D-02  1.993D-03
    6.250000    1.0862569349156D-02  1.950D-03
    6.275000    1.0625865553262D-02  1.907D-03
    6.300000    1.0394797479982D-02  1.866D-03
    6.325000    1.0169227902026D-02  1.825D-03
    6.350000    9.9490225991404D-03  1.786D-03
    6.375000    9.7340503249344D-03  1.747D-03
    6.400000    9.5241827713910D-03  1.709D-03
    6.425000    9.3192945313025D-03  1.673D-03
    6.450000    9.1192630588802D-03  1.637D-03
    6.475000    8.9239686287586D-03  1.602D-03
    6.500000    8.7332942936033D-03  1.567D-03
    6.525000    8.5471258405166D-03  1.534D-03
    6.550000    8.3653517464205D-03  1.501D-03
    6.575000    8.1878631325855D-03  1.470D-03
    6.600000    8.0145537184584D-03  1.438D-03
    6.625000    7.8453197749344D-03  1.408D-03
    6.650000    7.6800600772039D-03  1.378D-03
    6.675000    7.5186758572978D-03  1.349D-03
    6.700000    7.3610707564420D-03  1.321D-03
    6.725000    7.2071507773249D-03  1.294D-03
    6.750000    7.0568242363729D-03  1.267D-03
    6.775000    6.9100017161185D-03  1.240D-03
    6.800000    6.7665960177419D-03  1.214D-03
    6.825000    6.6265221138570D-03  1.189D-03
    6.850000    6.4896971016052D-03  1.165D-03
    6.875000    6.3560401561194D-03  1.141D-03
    6.900000    6.2254724844071D-03  1.117D-03
    6.925000    6.0979172797039D-03  1.094D-03
    6.950000    5.9732996763374D-03  1.072D-03
    6.975000    5.8515467051404D-03  1.050D-03
    7.000000    5.7325872494473D-03  1.029D-03
    7.025000    5.6163520017022D-03  1.008D-03
    7.050000    5.5027734207054D-03  9.876D-04
    7.075000    5.3917856895195D-03  9.677D-04
    7.100000    5.2833246740550D-03  9.482D-04
    7.125000    5.1773278823513D-03  9.292D-04
    7.150000    5.0737344245656D-03  9.106D-04
    7.175000    4.9724849736814D-03  8.924D-04
    7.200000    4.8735217269446D-03  8.747D-04
    7.225000    4.7767883680331D-03  8.573D-04
    7.250000    4.6822300299652D-03  8.403D-04
    7.275000    4.5897932587483D-03  8.238D-04
    7.300000    4.4994259777692D-03  8.075D-04
    7.325000    4.4110774529256D-03  7.917D-04
    7.350000    4.3246982584959D-03  7.762D-04
    7.375000    4.2402402437456D-03  7.610D-04
    7.400000    4.1576565002645D-03  7.462D-04
    7.425000    4.0769013300298D-03  7.317D-04
    7.450000    3.9979302141891D-03  7.175D-04
    7.475000    3.9206997825564D-03  7.037D-04
    7.500000    3.8451677838118D-03  6.901D-04
    7.525000    3.7712930563989D-03  6.769D-04
    7.550000    3.6990355001087D-03  6.639D-04
    7.575000    3.6283560483411D-03  6.512D-04
    7.600000    3.5592166410349D-03  6.388D-04
    7.625000    3.4915801982546D-03  6.267D-04
    7.650000    3.4254105944244D-03  6.148D-04
    7.675000    3.3606726331978D-03  6.032D-04
    7.700000    3.2973320229518D-03  5.918D-04
    7.725000    3.2353553528947D-03  5.807D-04
    7.750000    3.1747100697754D-03  5.698D-04
    7.775000    3.1153644551830D-03  5.591D-04
    7.800000    3.0572876034251D-03  5.487D-04
    7.825000    3.0004493999725D-03  5.385D-04
    7.850000    2.9448205004595D-03  5.285D-04
    7.875000    2.8903723102269D-03  5.188D-04
    7.900000    2.8370769643972D-03  5.092D-04
    7.925000    2.7849073084694D-03  4.998D-04
    7.950000    2.7338368794224D-03  4.907D-04
    7.975000    2.6838398873149D-03  4.817D-04
    8.000000    2.6348911973715D-03  4.729D-04
    8.025000    2.5869663125423D-03  4.643D-04
    8.050000    2.5400413565261D-03  4.559D-04
    8.075000    2.4940930572450D-03  4.476D-04
    8.100000    2.4490987307609D-03  4.396D-04
    8.125000    2.4050362656220D-03  4.316D-04
    8.150000    2.3618841076290D-03  4.239D-04
    8.175000    2.3196212450114D-03  4.163D-04
    8.200000    2.2782271940026D-03  4.089D-04
    8.225000    2.2376819848042D-03  4.016D-04
    8.250000    2.1979661479300D-03  3.945D-04
    8.275000    2.1590607009192D-03  3.875D-04
    8.300000    2.1209471354103D-03  3.807D-04
    8.325000    2.0836074045656D-03  3.740D-04
    8.350000    2.0470239108374D-03  3.674D-04
    8.375000    2.0111794940671D-03  3.610D-04
    8.400000    1.9760574199083D-03  3.547D-04
    8.425000    1.9416413685659D-03  3.485D-04
    8.450000    1.9079154238414D-03  3.424D-04
    8.475000    1.8748640624781D-03  3.365D-04
    8.500000    1.8424721437966D-03  3.307D-04
    8.525000    1.8107248996141D-03  3.250D-04
    8.550000    1.7796079244388D-03  3.194D-04
    8.575000    1.7491071659326D-03  3.139D-04
    8.600000    1.7192089156339D-03  3.086D-04
    8.625000    1.6898997999360D-03  3.033D-04
    8.650000    1.6611667713098D-03  2.981D-04
    8.675000    1.6329970997687D-03  2.931D-04
    8.700000    1.6053783645659D-03  2.881D-04
    8.725000    1.5782984461187D-03  2.833D-04
    8.750000    1.5517455181547D-03  2.785D-04
    8.775000    1.5257080400712D-03  2.738D-04
    8.800000    1.5001747495048D-03  2.692D-04
    8.825000    1.4751346551030D-03  2.648D-04
    8.850000    1.4505770294939D-03  2.603D-04
    8.875000    1.4264914024476D-03  2.560D-04
    8.900000    1.4028675542240D-03  2.518D-04
    8.925000    1.3796955091023D-03  2.476D-04
    8.950000    1.3569655290866D-03  2.435D-04
    8.975000    1.3346681077832D-03  2.395D-04
    9.000000    1.3127939644443D-03  2.356D-04
    9.025000    1.2913340381740D-03  2.318D-04
    9.050000    1.2702794822910D-03  2.280D-04
    9.075000    1.2496216588459D-03  2.243D-04
    9.100000    1.2293521332855D-03  2.206D-04
    9.125000    1.2094626692629D-03  2.171D-04
    9.150000    1.1899452235880D-03  2.136D-04
    9.175000    1.1707919413139D-03  2.101D-04
    9.200000    1.1519951509576D-03  2.068D-04
    9.225000    1.1335473598478D-03  2.034D-04
    9.250000    1.1154412496001D-03  2.002D-04
    9.275000    1.0976696717130D-03  1.970D-04
    9.300000    1.0802256432825D-03  1.939D-04
    9.325000    1.0631023428326D-03  1.908D-04
    9.350000    1.0462931062571D-03  1.878D-04
    9.375000    1.0297914228704D-03  1.848D-04
    9.400000    1.0135909315647D-03  1.819D-04
    9.425000    9.9768541706884D-04  1.791D-04
    9.450000    9.8206880630858D-04  1.763D-04
    9.475000    9.6673516486279D-04  1.735D-04
    9.500000    9.5167869351483D-04  1.708D-04
    9.525000    9.3689372489553D-04  1.681D-04
    9.550000    9.2237472021535D-04  1.655D-04
    9.575000    9.0811626608350D-04  1.630D-04
    9.600000    8.9411307141117D-04  1.605D-04
    9.625000    8.8035996439698D-04  1.580D-04
    9.650000    8.6685188959194D-04  1.556D-04
    9.675000    8.5358390504205D-04  1.532D-04
    9.700000    8.4055117950617D-04  1.509D-04
    9.725000    8.2774898974710D-04  1.486D-04
    9.750000    8.1517271789396D-04  1.463D-04
    9.775000    8.0281784887373D-04  1.441D-04
    9.800000    7.9067996791012D-04  1.419D-04
    9.825000    7.7875475808795D-04  1.398D-04
    9.850000    7.6703799798102D-04  1.377D-04
    9.875000    7.5552555934206D-04  1.356D-04
    9.900000    7.4421340485269D-04  1.336D-04
    9.925000    7.3309758593201D-04  1.316D-04
    9.950000    7.2217424060198D-04  1.296D-04
    9.975000    7.1143959140825D-04  1.277D-04
   10.000000    7.0088994339470D-04  1.258D-04
   10.025000    6.9052168213041D-04  1.239D-04
   10.050000    6.8033127178745D-04  1.221D-04
   10.075000    6.7031525326825D-04  1.203D-04
   10.100000    6.6047024238106D-04  1.185D-04
   10.125000    6.5079292806230D-04  1.168D-04
   10.150000    6.4128007064439D-04  1.151D-04
   10.175000    6.3192850016801D-04  1.134D-04
   10.200000    6.2273511473737D-04  1.118D-04
   10.225000    6.1369687891746D-04  1.101D-04
   10.250000    6.0481082217212D-04  1.085D-04
   10.275000    5.9607403734172D-04  1.070D-04
   10.300000    5.8748367915958D-04  1.054D-04
   10.325000    5.7903696280584D-04  1.039D-04
   10.350000    5.7073116249798D-04  1.024D-04
   10.375000    5.6256361011683D-04  1.010D-04
   10.400000    5.5453169386733D-04  9.953D-05
   10.425000    5.4663285697278D-04  9.811D-05
   10.450000    5.3886459640201D-04  9.671D-05
   10.475000    5.3122446162844D-04  9.534D-05
   10.500000    5.2371005342010D-04  9.399D-05
   10.525000    5.1631902265999D-04  9.267D-05
   10.550000    5.0904906919566D-04  9.136D-05
   10.575000    5.0189794071768D-04  9.008D-05
   10.600000    4.9486343166569D-04  8.882D-05
   10.625000    4.8794338216178D-04  8.757D-05
   10.650000    4.8113567697018D-04  8.635D-05
   10.675000    4.7443824448262D-04  8.515D-05
   10.700000    4.6784905572884D-04  8.397D-05
   10.725000    4.6136612341130D-04  8.280D-05
   10.750000    4.5498750096372D-04  8.166D-05
   10.775000    4.4871128163269D-04  8.053D-05
   10.800000    4.4253559758171D-04  7.942D-05
   10.825000    4.3645861901720D-04  7.833D-05
   10.850000    4.3047855333581D-04  7.726D-05
   10.875000    4.2459364429246D-04  7.620D-05
   10.900000    4.1880217118860D-04  7.516D-05
   10.925000    4.1310244808027D-04  7.414D-05
   10.950000    4.0749282300515D-04  7.314D-05
   10.975000    4.0197167722849D-04  7.214D-05
   11.000000    3.9653742450709D-04  7.117D-05
   11.025000    3.9118851037106D-04  7.021D-05
   11.050000    3.8592341142289D-04  6.926D-05
   11.075000    3.8074063465325D-04  6.833D-05
   11.100000    3.7563871677322D-04  6.742D-05
   11.125000    3.7061622356254D-04  6.652D-05
   11.150000    3.6567174923327D-04  6.563D-05
   11.175000    3.6080391580879D-04  6.476D-05
   11.200000    3.5601137251740D-04  6.390D-05
   11.225000    3.5129279520040D-04  6.305D-05
   11.250000    3.4664688573418D-04  6.221D-05
   11.275000    3.4207237146594D-04  6.139D-05
   11.300000    3.3756800466279D-04  6.059D-05
   11.325000    3.3313256197374D-04  5.979D-05
   11.350000    3.2876484390437D-04  5.901D-05
   11.375000    3.2446367430394D-04  5.823D-05
   11.400000    3.2022789986432D-04  5.747D-05
   11.425000    3.1605638963077D-04  5.672D-05
   11.450000    3.1194803452411D-04  5.599D-05
   11.475000    3.0790174687397D-04  5.526D-05
   11.500000    3.0391645996300D-04  5.455D-05
   11.525000    2.9999112758153D-04  5.384D-05
   11.550000    2.9612472359265D-04  5.315D-05
   11.575000    2.9231624150727D-04  5.246D-05
   11.600000    2.8856469406902D-04  5.179D-05
   11.625000    2.8486911284877D-04  5.113D-05
   11.650000    2.8122854784834D-04  5.047D-05
   11.675000    2.7764206711345D-04  4.983D-05
   11.700000    2.7410875635540D-04  4.920D-05
   11.725000    2.7062771858151D-04  4.857D-05
   11.750000    2.6719807373397D-04  4.796D-05
   11.775000    2.6381895833684D-04  4.735D-05
   11.800000    2.6048952515121D-04  4.675D-05
   11.825000    2.5720894283805D-04  4.616D-05
   11.850000    2.5397639562879D-04  4.558D-05
   11.875000    2.5079108300333D-04  4.501D-05
   11.900000    2.4765221937527D-04  4.445D-05
   11.925000    2.4455903378431D-04  4.389D-05
   11.950000    2.4151076959551D-04  4.335D-05
   11.975000    2.3850668420532D-04  4.281D-05
   12.000000    2.3554604875417D-04  4.227D-05
   12.025000    2.3262814784553D-04  4.175D-05
   12.050000    2.2975227927124D-04  4.124D-05
   12.075000    2.2691775374289D-04  4.073D-05
   12.100000    2.2412389462926D-04  4.022D-05
   12.125000    2.2137003769955D-04  3.973D-05
   12.150000    2.1865553087228D-04  3.924D-05
   12.175000    2.1597973396979D-04  3.876D-05
   12.200000    2.1334201847813D-04  3.829D-05
   12.225000    2.1074176731220D-04  3.782D-05
   12.250000    2.0817837458620D-04  3.736D-05
   12.275000    2.0565124538891D-04  3.691D-05
   12.300000    2.0315979556405D-04  3.646D-05
   12.325000    2.0070345149544D-04  3.602D-05
   12.350000    1.9828164989676D-04  3.559D-05
   12.375000    1.9589383760593D-04  3.516D-05
   12.400000    1.9353947138402D-04  3.474D-05
   12.425000    1.9121801771844D-04  3.432D-05
   12.450000    1.8892895263049D-04  3.391D-05
   12.475000    1.8667176148696D-04  3.350D-05
   12.500000    1.8444593881590D-04  3.310D-05
   12.525000    1.8225098812627D-04  3.271D-05
   12.550000    1.8008642173161D-04  3.232D-05
   12.575000    1.7795176057730D-04  3.194D-05
   12.600000    1.7584653407174D-04  3.156D-05
   12.625000    1.7377027992093D-04  3.119D-05
   12.650000    1.7172254396676D-04  3.082D-05
   12.675000    1.6970288002865D-04  3.046D-05
   12.700000    1.6771084974858D-04  3.010D-05
   12.725000    1.6574602243944D-04  2.975D-05
   12.750000    1.6380797493653D-04  2.940D-05
   12.775000    1.6189629145231D-04  2.906D-05
   12.800000    1.6001056343411D-04  2.872D-05
   12.825000    1.5815038942489D-04  2.838D-05
   12.850000    1.5631537492697D-04  2.805D-05
   12.875000    1.5450513226851D-04  2.773D-05
   12.900000    1.5271928047296D-04  2.741D-05
   12.925000    1.5095744513107D-04  2.709D-05
   12.950000    1.4921925827567D-04  2.678D-05
   12.975000    1.4750435825909D-04  2.647D-05
   13.000000    1.4581238963304D-04  2.617D-05
   13.025000    1.4414300303105D-04  2.587D-05
   13.050000    1.4249585505334D-04  2.557D-05
   13.075000    1.4087060815411D-04  2.528D-05
   13.100000    1.3926693053104D-04  2.500D-05
   13.125000    1.3768449601722D-04  2.471D-05
   13.150000    1.3612298397525D-04  2.443D-05
   13.175000    1.3458207919345D-04  2.415D-05
   13.200000    1.3306147178431D-04  2.388D-05
   13.225000    1.3156085708495D-04  2.361D-05
   13.250000    1.3007993555966D-04  2.335D-05
   13.275000    1.2861841270439D-04  2.308D-05
   13.300000    1.2717599895321D-04  2.283D-05
   13.325000    1.2575240958668D-04  2.257D-05
   13.350000    1.2434736464207D-04  2.232D-05
   13.375000    1.2296058882542D-04  2.207D-05
   13.400000    1.2159181142531D-04  2.182D-05
   13.425000    1.2024076622850D-04  2.158D-05
   13.450000    1.1890719143714D-04  2.134D-05
   13.475000    1.1759082958773D-04  2.110D-05
   13.500000    1.1629142747172D-04  2.087D-05
   13.525000    1.1500873605759D-04  2.064D-05
   13.550000    1.1374251041465D-04  2.041D-05
   13.575000    1.1249250963823D-04  2.019D-05
   13.600000    1.1125849677644D-04  1.997D-05
   13.625000    1.1004023875839D-04  1.975D-05
   13.650000    1.0883750632376D-04  1.953D-05
   13.675000    1.0765007395387D-04  1.932D-05
   13.700000    1.0647771980408D-04  1.911D-05
   13.725000    1.0532022563746D-04  1.890D-05
   13.750000    1.0417737675990D-04  1.870D-05
   13.775000    1.0304896195636D-04  1.849D-05
   13.800000    1.0193477342854D-04  1.829D-05
   13.825000    1.0083460673357D-04  1.810D-05
   13.850000    9.9748260724091D-05  1.790D-05
   13.875000    9.8675537489416D-05  1.771D-05
   13.900000    9.7616242297828D-05  1.752D-05
   13.925000    9.6570183540081D-05  1.733D-05
   13.950000    9.5537172673912D-05  1.715D-05
   13.975000    9.4517024169713D-05  1.696D-05
   14.000000    9.3509555457184D-05  1.678D-05
   14.025000    9.2514586873102D-05  1.660D-05
   14.050000    9.1531941610008D-05  1.643D-05
   14.075000    9.0561445665973D-05  1.625D-05
   14.100000    8.9602927795286D-05  1.608D-05
   14.125000    8.8656219460076D-05  1.591D-05
   14.150000    8.7721154782920D-05  1.574D-05
   14.175000    8.6797570500307D-05  1.558D-05
   14.200000    8.5885305917033D-05  1.541D-05
   14.225000    8.4984202861431D-05  1.525D-05
   14.250000    8.4094105641496D-05  1.509D-05
   14.275000    8.3214861001796D-05  1.494D-05
   14.300000    8.2346318081292D-05  1.478D-05
   14.325000    8.1488328371828D-05  1.463D-05
   14.350000    8.0640745677537D-05  1.447D-05
   14.375000    7.9803426074912D-05  1.432D-05
   14.400000    7.8976227873731D-05  1.417D-05
   14.425000    7.8159011578637D-05  1.403D-05
   14.450000    7.7351639851477D-05  1.388D-05
   14.475000    7.6553977474342D-05  1.374D-05
   14.500000    7.5765891313337D-05  1.360D-05
   14.525000    7.4987250282935D-05  1.346D-05
   14.550000    7.4217925311134D-05  1.332D-05
   14.575000    7.3457789305132D-05  1.318D-05
   14.600000    7.2706717117736D-05  1.305D-05
   14.625000    7.1964585514371D-05  1.292D-05
   14.650000    7.1231273140651D-05  1.278D-05
   14.675000    7.0506660490651D-05  1.265D-05
   14.700000    6.9790629875675D-05  1.253D-05
   14.725000    6.9083065393636D-05  1.240D-05
   14.750000    6.8383852899039D-05  1.227D-05
   14.775000    6.7692879973460D-05  1.215D-05
   14.800000    6.7010035896576D-05  1.203D-05
   14.825000    6.6335211617787D-05  1.191D-05
   14.850000    6.5668299728262D-05  1.179D-05
   14.875000    6.5009194433608D-05  1.167D-05
   14.900000    6.4357791526925D-05  1.155D-05
   14.925000    6.3713988362443D-05  1.144D-05
   14.950000    6.3077683829619D-05  1.132D-05
   14.975000    6.2448778327638D-05  1.121D-05
   15.000000    6.1827173740493D-05  1.110D-05
   15.025000    6.1212773412419D-05  1.099D-05
   15.050000    6.0605482123823D-05  1.088D-05
   15.075000    6.0005206067639D-05  1.077D-05
   15.100000    5.9411852826087D-05  1.066D-05
   15.125000    5.8825331347907D-05  1.056D-05
   15.150000    5.8245551925913D-05  1.045D-05
   15.175000    5.7672426175077D-05  1.035D-05
   15.200000    5.7105867010848D-05  1.025D-05
   15.225000    5.6545788628023D-05  1.015D-05
   15.250000    5.5992106479873D-05  1.005D-05
   15.275000    5.5444737257687D-05  9.951D-06
   15.300000    5.4903598870703D-05  9.854D-06
   15.325000    5.4368610426353D-05  9.758D-06
   15.350000    5.3839692210891D-05  9.663D-06
   15.375000    5.3316765670343D-05  9.569D-06
   15.400000    5.2799753391815D-05  9.476D-06
   15.425000    5.2288579085123D-05  9.385D-06
   15.450000    5.1783167564732D-05  9.294D-06
   15.475000    5.1283444732037D-05  9.204D-06
   15.500000    5.0789337557940D-05  9.115D-06
   15.525000    5.0300774065763D-05  9.028D-06
   15.550000    4.9817683314392D-05  8.941D-06
   15.575000    4.9339995381803D-05  8.855D-06
   15.600000    4.8867641348822D-05  8.771D-06
   15.625000    4.8400553283170D-05  8.687D-06
   15.650000    4.7938664223824D-05  8.604D-06
   15.675000    4.7481908165591D-05  8.522D-06
   15.700000    4.7030220044019D-05  8.441D-06
   15.725000    4.6583535720492D-05  8.361D-06
   15.750000    4.6141791967673D-05  8.281D-06
   15.775000    4.5704926455110D-05  8.203D-06
   15.800000    4.5272877735171D-05  8.125D-06
   15.825000    4.4845585229147D-05  8.049D-06
   15.850000    4.4422989213657D-05  7.973D-06
   15.875000    4.4005030807245D-05  7.898D-06
   15.900000    4.3591651957219D-05  7.824D-06
   15.925000    4.3182795426752D-05  7.750D-06
   15.950000    4.2778404782131D-05  7.678D-06
   15.975000    4.2378424380271D-05  7.606D-06
   16.000000    4.1982799356462D-05  7.535D-06
   16.025000    4.1591475612274D-05  7.465D-06
   16.050000    4.1204399803699D-05  7.395D-06
   16.075000    4.0821519329477D-05  7.326D-06
   16.100000    4.0442782319649D-05  7.259D-06
   16.125000    4.0068137624279D-05  7.191D-06
   16.150000    3.9697534802356D-05  7.125D-06
   16.175000    3.9330924110931D-05  7.059D-06
   16.200000    3.8968256494366D-05  6.994D-06
   16.225000    3.8609483573857D-05  6.929D-06
   16.250000    3.8254557637026D-05  6.866D-06
   16.275000    3.7903431627789D-05  6.803D-06
   16.300000    3.7556059136314D-05  6.740D-06
   16.325000    3.7212394389196D-05  6.679D-06
   16.350000    3.6872392239773D-05  6.618D-06
   16.375000    3.6536008158622D-05  6.557D-06
   16.400000    3.6203198224194D-05  6.498D-06
   16.425000    3.5873919113606D-05  6.439D-06
   16.450000    3.5548128093623D-05  6.380D-06
   16.475000    3.5225783011718D-05  6.322D-06
   16.500000    3.4906842287356D-05  6.265D-06
   16.525000    3.4591264903355D-05  6.208D-06
   16.550000    3.4279010397467D-05  6.152D-06
   16.575000    3.3970038854019D-05  6.097D-06
   16.600000    3.3664310895735D-05  6.042D-06
   16.625000    3.3361787675672D-05  5.988D-06
   16.650000    3.3062430869333D-05  5.934D-06
   16.675000    3.2766202666844D-05  5.881D-06
   16.700000    3.2473065765294D-05  5.828D-06
   16.725000    3.2182983361231D-05  5.776D-06
   16.750000    3.1895919143197D-05  5.725D-06
   16.775000    3.1611837284459D-05  5.674D-06
   16.800000    3.1330702435857D-05  5.623D-06
   16.825000    3.1052479718693D-05  5.573D-06
   16.850000    3.0777134717836D-05  5.524D-06
   16.875000    3.0504633474863D-05  5.475D-06
   16.900000    3.0234942481337D-05  5.426D-06
   16.925000    2.9968028672220D-05  5.379D-06
   16.950000    2.9703859419331D-05  5.331D-06
   16.975000    2.9442402524978D-05  5.284D-06
   17.000000    2.9183626215623D-05  5.238D-06
   17.025000    2.8927499135745D-05  5.192D-06
   17.050000    2.8673990341661D-05  5.146D-06
   17.075000    2.8423069295601D-05  5.101D-06
   17.100000    2.8174705859753D-05  5.057D-06
   17.125000    2.7928870290481D-05  5.013D-06
   17.150000    2.7685533232606D-05  4.969D-06
   17.175000    2.7444665713759D-05  4.926D-06
   17.200000    2.7206239138866D-05  4.883D-06
   17.225000    2.6970225284687D-05  4.841D-06
   17.250000    2.6736596294463D-05  4.799D-06
   17.275000    2.6505324672634D-05  4.757D-06
   17.300000    2.6276383279651D-05  4.716D-06
   17.325000    2.6049745326835D-05  4.675D-06
   17.350000    2.5825384371394D-05  4.635D-06
   17.375000    2.5603274311421D-05  4.595D-06
   17.400000    2.5383389381073D-05  4.556D-06
   17.425000    2.5165704145721D-05  4.517D-06
   17.450000    2.4950193497248D-05  4.478D-06
   17.475000    2.4736832649416D-05  4.440D-06
   17.500000    2.4525597133268D-05  4.402D-06
   17.525000    2.4316462792629D-05  4.364D-06
   17.550000    2.4109405779686D-05  4.327D-06
   17.575000    2.3904402550594D-05  4.290D-06
   17.600000    2.3701429861210D-05  4.254D-06
   17.625000    2.3500464762827D-05  4.218D-06
   17.650000    2.3301484598046D-05  4.182D-06
   17.675000    2.3104466996658D-05  4.147D-06
   17.700000    2.2909389871587D-05  4.112D-06
   17.725000    2.2716231414952D-05  4.077D-06
   17.750000    2.2524970094129D-05  4.043D-06
   17.775000    2.2335584647906D-05  4.009D-06
   17.800000    2.2148054082682D-05  3.975D-06
   17.825000    2.1962357668733D-05  3.942D-06
   17.850000    2.1778474936544D-05  3.909D-06
   17.875000    2.1596385673159D-05  3.876D-06
   17.900000    2.1416069918658D-05  3.844D-06
   17.925000    2.1237507962594D-05  3.812D-06
   17.950000    2.1060680340577D-05  3.780D-06
   17.975000    2.0885567830830D-05  3.748D-06
   18.000000    2.0712151450875D-05  3.717D-06
   18.025000    2.0540412454182D-05  3.687D-06
   18.050000    2.0370332326954D-05  3.656D-06
   18.075000    2.0201892784913D-05  3.626D-06