
variables = "r", "B(r) ", "Uncertainty"
zone T = "State 1 B(r)   66N9p6q3Rf3_6R      "

    0.000000   -6.9227650219647D+00     0.0
    0.025000   -4.9635752183812D-02     0.0
    0.050000   -4.9636093754044D-02     0.0
    0.075000   -4.9637020889216D-02     0.0
    0.100000   -4.9638826407744D-02     0.0
    0.125000   -4.9641803167702D-02     0.0
    0.150000   -4.9646244075991D-02     0.0
    0.175000   -4.9652442095418D-02     0.0
    0.200000   -4.9660690249689D-02     0.0
    0.225000   -4.9671281626311D-02     0.0
    0.250000   -4.9684509377399D-02     0.0
    0.275000   -4.9700666718384D-02     0.0
    0.300000   -4.9720046924628D-02     0.0
    0.325000   -4.9742943325930D-02     0.0
    0.350000   -4.9769649298924D-02     0.0
    0.375000   -4.9800458257378D-02     0.0
    0.400000   -4.9835663640368D-02     0.0
    0.425000   -4.9875558898339D-02     0.0
    0.450000   -4.9920437477054D-02     0.0
    0.475000   -4.9970592799409D-02     0.0
    0.500000   -5.0026318245136D-02     0.0
    0.525000   -5.0087907128364D-02     0.0
    0.550000   -5.0155652673067D-02     0.0
    0.575000   -5.0229847986368D-02     0.0
    0.600000   -5.0310786029718D-02     0.0
    0.625000   -5.0398759587938D-02     0.0
    0.650000   -5.0494061236133D-02     0.0
    0.675000   -5.0596983304470D-02     0.0
    0.700000   -5.0707817840825D-02     0.0
    0.725000   -5.0826856571298D-02     0.0
    0.750000   -5.0954390858610D-02     0.0
    0.775000   -5.1090711658365D-02     0.0
    0.800000   -5.1236109473200D-02     0.0
    0.825000   -5.1390874304814D-02     0.0
    0.850000   -5.1555295603899D-02     0.0
    0.875000   -5.1729662217959D-02     0.0
    0.900000   -5.1914262337042D-02     0.0
    0.925000   -5.2109383437387D-02     0.0
    0.950000   -5.2315312222992D-02     0.0
    0.975000   -5.2532334565131D-02     0.0
    1.000000   -5.2760735439813D-02     0.0
    1.025000   -5.3000798863204D-02     0.0
    1.050000   -5.3252807825040D-02     0.0
    1.075000   -5.3517044220026D-02     0.0
    1.100000   -5.3793788777254D-02     0.0
    1.125000   -5.4083320987660D-02     0.0
    1.150000   -5.4385919029526D-02     0.0
    1.175000   -5.4701859692078D-02     0.0
    1.200000   -5.5031418297167D-02     0.0
    1.225000   -5.5374868619093D-02     0.0
    1.250000   -5.5732482802583D-02     0.0
    1.275000   -5.6104531278947D-02     0.0
    1.300000   -5.6491282680460D-02     0.0
    1.325000   -5.6893003752990D-02     0.0
    1.350000   -5.7309959266906D-02     0.0
    1.375000   -5.7742411926309D-02     0.0
    1.400000   -5.8190622276624D-02     0.0
    1.425000   -5.8654848610587D-02     0.0
    1.450000   -5.9135346872667D-02     0.0
    1.475000   -5.9632370561984D-02     0.0
    1.500000   -6.0146170633745D-02     0.0
    1.525000   -6.0676995399260D-02     0.0
    1.550000   -6.1225090424589D-02     0.0
    1.575000   -6.1790698427864D-02     0.0
    1.600000   -6.2374059175337D-02     0.0
    1.625000   -6.2975409376225D-02     0.0
    1.650000   -6.3594982576394D-02     0.0
    1.675000   -6.4233009050943D-02     0.0
    1.700000   -6.4889715695764D-02     0.0
    1.725000   -6.5565325918115D-02     0.0
    1.750000   -6.6260059526304D-02     0.0
    1.775000   -6.6974132618520D-02     0.0
    1.800000   -6.7707757470900D-02     0.0
    1.825000   -6.8461142424897D-02     0.0
    1.850000   -6.9234491774025D-02     0.0
    1.875000   -7.0028005650042D-02     0.0
    1.900000   -7.0841879908678D-02     0.0
    1.925000   -7.1676306014947D-02     0.0
    1.950000   -7.2531470928156D-02     0.0
    1.975000   -7.3407556986682D-02     0.0
    2.000000   -7.4304741792591D-02     0.0
    2.025000   -7.5223198096200D-02     0.0
    2.050000   -7.6163093680662D-02     0.0
    2.075000   -7.7124591246661D-02     0.0
    2.100000   -7.8107848297311D-02     0.0
    2.125000   -7.9113017023350D-02     0.0
    2.150000   -8.0140244188723D-02     0.0
    2.175000   -8.1189671016640D-02     0.0
    2.200000   -8.2261433076225D-02  3.158D-04
    2.225000   -8.3355660169825D-02  3.137D-04
    2.250000   -8.4472476221110D-02  3.115D-04
    2.275000   -8.5611999164032D-02  3.094D-04
    2.300000   -8.6774340832763D-02  3.072D-04
    2.325000   -8.7959606852713D-02  3.050D-04
    2.350000   -8.9167896532719D-02  3.028D-04
    2.375000   -9.0399302758516D-02  3.005D-04
    2.400000   -9.1653911887595D-02  2.982D-04
    2.425000   -9.2931803645552D-02  2.958D-04
    2.450000   -9.4233051024022D-02  2.935D-04
    2.475000   -9.5557720180328D-02  2.911D-04
    2.500000   -9.6905870338920D-02  2.886D-04
    2.525000   -9.8277553694734D-02  2.862D-04
    2.550000   -9.9672815318568D-02  2.837D-04
    2.575000   -1.0109169306458D-01  2.812D-04
    2.600000   -1.0253421748003D-01  2.787D-04
    2.625000   -1.0400041171731D-01  2.761D-04
    2.650000   -1.0549029144851D-01  2.735D-04
    2.675000   -1.0700386478241D-01  2.709D-04
    2.700000   -1.0854113218425D-01  2.683D-04
    2.725000   -1.1010208639815D-01  2.657D-04
    2.750000   -1.1168671237245D-01  2.630D-04
    2.775000   -1.1329498718802D-01  2.603D-04
    2.800000   -1.1492687998959D-01  2.576D-04
    2.825000   -1.1658235192029D-01  2.549D-04
    2.850000   -1.1826135605945D-01  2.522D-04
    2.875000   -1.1996383736371D-01  2.494D-04
    2.900000   -1.2168973261169D-01  2.466D-04
    2.925000   -1.2343897035215D-01  2.439D-04
    2.950000   -1.2521147085579D-01  2.411D-04
    2.975000   -1.2700714607087D-01  2.383D-04
    3.000000   -1.2882589958258D-01  2.354D-04
    3.025000   -1.3066762657640D-01  2.326D-04
    3.050000   -1.3253221380541D-01  2.298D-04
    3.075000   -1.3441953956176D-01  2.269D-04
    3.100000   -1.3632947365229D-01  2.241D-04
    3.125000   -1.3826187737837D-01  2.212D-04
    3.150000   -1.4021660352012D-01  2.184D-04
    3.175000   -1.4219349632505D-01  2.155D-04
    3.200000   -1.4419239150112D-01  2.127D-04
    3.225000   -1.4621311621443D-01  2.098D-04
    3.250000   -1.4825548909144D-01  2.070D-04
    3.275000   -1.5031932022596D-01  2.041D-04
    3.300000   -1.5240441119081D-01  2.013D-04
    3.325000   -1.5451055505431D-01  1.985D-04
    3.350000   -1.5663753640162D-01  1.956D-04
    3.375000   -1.5878513136097D-01  1.928D-04
    3.400000   -1.6095310763486D-01  1.900D-04
    3.425000   -1.6314122453621D-01  1.872D-04
    3.450000   -1.6534923302960D-01  1.844D-04
    3.475000   -1.6757687577754D-01  1.817D-04
    3.500000   -1.6982388719184D-01  1.789D-04
    3.525000   -1.7208999349012D-01  1.762D-04
    3.550000   -1.7437491275747D-01  1.734D-04
    3.575000   -1.7667835501327D-01  1.708D-04
    3.600000   -1.7900002228323D-01  1.681D-04
    3.625000   -1.8133960867660D-01  1.654D-04
    3.650000   -1.8369680046860D-01  1.628D-04
    3.675000   -1.8607127618805D-01  1.602D-04
    3.700000   -1.8846270671026D-01  1.576D-04
    3.725000   -1.9087075535506D-01  1.551D-04
    3.750000   -1.9329507799005D-01  1.526D-04
    3.775000   -1.9573532313907D-01  1.501D-04
    3.800000   -1.9819113209579D-01  1.476D-04
    3.825000   -2.0066213904246D-01  1.452D-04
    3.850000   -2.0314797117374D-01  1.428D-04
    3.875000   -2.0564824882567D-01  1.405D-04
    3.900000   -2.0816258560965D-01  1.382D-04
    3.925000   -2.1069058855138D-01  1.359D-04
    3.950000   -2.1323185823486D-01  1.337D-04
    3.975000   -2.1578598895116D-01  1.315D-04
    4.000000   -2.1835256885218D-01  1.294D-04
    4.025000   -2.2093118010906D-01  1.273D-04
    4.050000   -2.2352139907539D-01  1.252D-04
    4.075000   -2.2612279645507D-01  1.232D-04
    4.100000   -2.2873493747471D-01  1.212D-04
    4.125000   -2.3135738206054D-01  1.193D-04
    4.150000   -2.3398968501974D-01  1.175D-04
    4.175000   -2.3663139622608D-01  1.157D-04
    4.200000   -2.3928206080976D-01  1.139D-04
    4.225000   -2.4194121935144D-01  1.122D-04
    4.250000   -2.4460840808023D-01  1.105D-04
    4.275000   -2.4728315907562D-01  1.089D-04
    4.300000   -2.4996500047320D-01  1.073D-04
    4.325000   -2.5265345667410D-01  1.058D-04
    4.350000   -2.5534804855791D-01  1.044D-04
    4.375000   -2.5804829369915D-01  1.030D-04
    4.400000   -2.6075370658689D-01  1.016D-04
    4.425000   -2.6346379884771D-01  1.003D-04
    4.450000   -2.6617807947152D-01  9.908D-05
    4.475000   -2.6889605504039D-01  9.788D-05
    4.500000   -2.7161722996000D-01  9.674D-05
    4.525000   -2.7434110669378D-01  9.564D-05
    4.550000   -2.7706718599940D-01  9.460D-05
    4.575000   -2.7979496716751D-01  9.360D-05
    4.600000   -2.8252394826263D-01  9.265D-05
    4.625000   -2.8525362636593D-01  9.175D-05
    4.650000   -2.8798349781978D-01  9.090D-05
    4.675000   -2.9071305847384D-01  9.009D-05
    4.700000   -2.9344180393261D-01  8.932D-05
    4.725000   -2.9616922980415D-01  8.859D-05
    4.750000   -2.9889483194984D-01  8.791D-05
    4.775000   -3.0161810673498D-01  8.726D-05
    4.800000   -3.0433855128004D-01  8.665D-05
    4.825000   -3.0705566371235D-01  8.608D-05
    4.850000   -3.0976894341809D-01  8.554D-05
    4.875000   -3.1247789129428D-01  8.504D-05
    4.900000   -3.1518201000062D-01  8.457D-05
    4.925000   -3.1788080421107D-01  8.412D-05
    4.950000   -3.2057378086476D-01  8.371D-05
    4.975000   -3.2326044941619D-01  8.331D-05
    5.000000   -3.2594032208446D-01  8.295D-05
    5.025000   -3.2861291410132D-01  8.260D-05
    5.050000   -3.3127774395780D-01  8.228D-05
    5.075000   -3.3393433364924D-01  8.197D-05
    5.100000   -3.3658220891852D-01  8.168D-05
    5.125000   -3.3922089949723D-01  8.141D-05
    5.150000   -3.4184993934462D-01  8.115D-05
    5.175000   -3.4446886688407D-01  8.090D-05
    5.200000   -3.4707722523690D-01  8.066D-05
    5.225000   -3.4967456245331D-01  8.043D-05
    5.250000   -3.5226043174018D-01  8.021D-05
    5.275000   -3.5483439168561D-01  7.999D-05
    5.300000   -3.5739600647997D-01  7.977D-05
    5.325000   -3.5994484613317D-01  7.956D-05
    5.350000   -3.6248048668805D-01  7.935D-05
    5.375000   -3.6500251042963D-01  7.914D-05
    5.400000   -3.6751050609009D-01  7.892D-05
    5.425000   -3.7000406904917D-01  7.871D-05
    5.450000   -3.7248280152990D-01  7.849D-05
    5.475000   -3.7494631278943D-01  7.826D-05
    5.500000   -3.7739421930476D-01  7.803D-05
    5.525000   -3.7982614495326D-01  7.778D-05
    5.550000   -3.8224172118774D-01  7.753D-05
    5.575000   -3.8464058720583D-01  7.727D-05
    5.600000   -3.8702239011374D-01  7.700D-05
    5.625000   -3.8938678508400D-01  7.672D-05
    5.650000   -3.9173343550709D-01  7.642D-05
    5.675000   -3.9406201313694D-01  7.611D-05
    5.700000   -3.9637219822996D-01  7.578D-05
    5.725000   -3.9866367967763D-01  7.544D-05
    5.750000   -4.0093615513243D-01  7.508D-05
    5.775000   -4.0318933112701D-01  7.470D-05
    5.800000   -4.0542292318653D-01  7.430D-05
    5.825000   -4.0763665593396D-01  7.389D-05
    5.850000   -4.0983026318841D-01  7.345D-05
    5.875000   -4.1200348805620D-01  7.300D-05
    5.900000   -4.1415608301478D-01  7.253D-05
    5.925000   -4.1628780998925D-01  7.203D-05
    5.950000   -4.1839844042162D-01  7.151D-05
    5.975000   -4.2048775533253D-01  7.097D-05
    6.000000   -4.2255554537559D-01  7.041D-05
    6.025000   -4.2460161088412D-01  6.983D-05
    6.050000   -4.2662576191043D-01  6.922D-05
    6.075000   -4.2862781825755D-01  6.859D-05
    6.100000   -4.3060760950332D-01  6.793D-05
    6.125000   -4.3256497501697D-01  6.725D-05
    6.150000   -4.3449976396821D-01  6.655D-05
    6.175000   -4.3641183532870D-01  6.583D-05
    6.200000   -4.3830105786602D-01  6.508D-05
    6.225000   -4.4016731013031D-01  6.431D-05
    6.250000   -4.4201048043336D-01  6.351D-05
    6.275000   -4.4383046682041D-01  6.270D-05
    6.300000   -4.4562717703468D-01  6.186D-05
    6.325000   -4.4740052847471D-01  6.100D-05
    6.350000   -4.4915044814455D-01  6.012D-05
    6.375000   -4.5087687259693D-01  5.922D-05
    6.400000   -4.5257974786955D-01  5.831D-05
    6.425000   -4.5425902941458D-01  5.737D-05
    6.450000   -4.5591468202142D-01  5.642D-05
    6.475000   -4.5754667973297D-01  5.546D-05
    6.500000   -4.5915500575548D-01  5.449D-05
    6.525000   -4.6073965236212D-01  5.351D-05
    6.550000   -4.6230062079046D-01  5.252D-05
    6.575000   -4.6383792113402D-01  5.153D-05
    6.600000   -4.6535157222797D-01  5.053D-05
    6.625000   -4.6684160152933D-01  4.954D-05
    6.650000   -4.6830804499166D-01  4.856D-05
    6.675000   -4.6975094693454D-01  4.759D-05
    6.700000   -4.7117035990805D-01  4.663D-05
    6.725000   -4.7256634455233D-01  4.570D-05
    6.750000   -4.7393896945254D-01  4.479D-05
    6.775000   -4.7528831098937D-01  4.392D-05
    6.800000   -4.7661445318534D-01  4.309D-05
    6.825000   -4.7791748754707D-01  4.231D-05
    6.850000   -4.7919751290375D-01  4.159D-05
    6.875000   -4.8045463524203D-01  4.093D-05
    6.900000   -4.8168896753763D-01  4.034D-05
    6.925000   -4.8290062958371D-01  3.984D-05
    6.950000   -4.8408974781642D-01  3.944D-05
    6.975000   -4.8525645513774D-01  3.913D-05
    7.000000   -4.8640089073591D-01  3.894D-05
    7.025000   -4.8752319990361D-01  3.886D-05
    7.050000   -4.8862353385415D-01  3.891D-05
    7.075000   -4.8970204953593D-01  3.909D-05
    7.100000   -4.9075890944533D-01  3.940D-05
    7.125000   -4.9179428143833D-01  3.985D-05
    7.150000   -4.9280833854103D-01  4.043D-05
    7.175000   -4.9380125875926D-01  4.116D-05
    7.200000   -4.9477322488764D-01  4.202D-05
    7.225000   -4.9572442431814D-01  4.302D-05
    7.250000   -4.9665504884844D-01  4.414D-05
    7.275000   -4.9756529449031D-01  4.539D-05
    7.300000   -4.9845536127819D-01  4.675D-05
    7.325000   -4.9932545307813D-01  4.823D-05
    7.350000   -5.0017577739739D-01  4.982D-05
    7.375000   -5.0100654519480D-01  5.150D-05
    7.400000   -5.0181797069214D-01  5.328D-05
    7.425000   -5.0261027118662D-01  5.515D-05
    7.450000   -5.0338366686477D-01  5.710D-05
    7.475000   -5.0413838061785D-01  5.913D-05
    7.500000   -5.0487463785887D-01  6.123D-05
    7.525000   -5.0559266634153D-01  6.340D-05
    7.550000   -5.0629269598112D-01  6.563D-05
    7.575000   -5.0697495867758D-01  6.792D-05
    7.600000   -5.0763968814085D-01  7.026D-05
    7.625000   -5.0828711971863D-01  7.266D-05
    7.650000   -5.0891749022671D-01  7.510D-05
    7.675000   -5.0953103778195D-01  7.758D-05
    7.700000   -5.1012800163808D-01  8.010D-05
    7.725000   -5.1070862202440D-01  8.266D-05
    7.750000   -5.1127313998744D-01  8.526D-05
    7.775000   -5.1182179723578D-01  8.789D-05
    7.800000   -5.1235483598799D-01  9.054D-05
    7.825000   -5.1287249882389D-01  9.323D-05
    7.850000   -5.1337502853914D-01  9.594D-05
    7.875000   -5.1386266800323D-01  9.867D-05
    7.900000   -5.1433566002093D-01  1.014D-04
    7.925000   -5.1479424719735D-01  1.042D-04
    7.950000   -5.1523867180646D-01  1.070D-04
    7.975000   -5.1566917566333D-01  1.098D-04
    8.000000   -5.1608600000000D-01  1.126D-04
    8.025000   -5.1648938534502D-01  1.154D-04
    8.050000   -5.1687957140674D-01  1.183D-04
    8.075000   -5.1725679696028D-01  1.211D-04
    8.100000   -5.1762129973835D-01  1.240D-04
    8.125000   -5.1797331632571D-01  1.268D-04
    8.150000   -5.1831308205744D-01  1.297D-04
    8.175000   -5.1864083092103D-01  1.326D-04
    8.200000   -5.1895679546207D-01  1.355D-04
    8.225000   -5.1926120669384D-01  1.383D-04
    8.250000   -5.1955429401049D-01  1.412D-04
    8.275000   -5.1983628510402D-01  1.441D-04
    8.300000   -5.2010740588484D-01  1.469D-04
    8.325000   -5.2036788040604D-01  1.498D-04
    8.350000   -5.2061793079126D-01  1.527D-04
    8.375000   -5.2085777716609D-01  1.555D-04
    8.400000   -5.2108763759305D-01  1.583D-04
    8.425000   -5.2130772801005D-01  1.612D-04
    8.450000   -5.2151826217222D-01  1.640D-04
    8.475000   -5.2171945159726D-01  1.668D-04
    8.500000   -5.2191150551401D-01  1.696D-04
    8.525000   -5.2209463081432D-01  1.724D-04
    8.550000   -5.2226903200822D-01  1.752D-04
    8.575000   -5.2243491118218D-01  1.780D-04
    8.600000   -5.2259246796044D-01  1.807D-04
    8.625000   -5.2274189946950D-01  1.835D-04
    8.650000   -5.2288340030546D-01  1.862D-04
    8.675000   -5.2301716250430D-01  1.889D-04
    8.700000   -5.2314337551504D-01  1.916D-04
    8.725000   -5.2326222617561D-01  1.942D-04
    8.750000   -5.2337389869145D-01  1.969D-04
    8.775000   -5.2347857461667D-01  1.995D-04
    8.800000   -5.2357643283791D-01  2.021D-04
    8.825000   -5.2366764956047D-01  2.047D-04
    8.850000   -5.2375239829704D-01  2.072D-04
    8.875000   -5.2383084985863D-01  2.098D-04
    8.900000   -5.2390317234786D-01  2.123D-04
    8.925000   -5.2396953115432D-01  2.148D-04
    8.950000   -5.2403008895216D-01  2.173D-04
    8.975000   -5.2408500569965D-01  2.197D-04
    9.000000   -5.2413443864071D-01  2.221D-04
    9.025000   -5.2417854230839D-01  2.245D-04
    9.050000   -5.2421746853008D-01  2.269D-04
    9.075000   -5.2425136643453D-01  2.292D-04
    9.100000   -5.2428038246057D-01  2.316D-04
    9.125000   -5.2430466036737D-01  2.339D-04
    9.150000   -5.2432434124633D-01  2.361D-04
    9.175000   -5.2433956353431D-01  2.383D-04
    9.200000   -5.2435046302844D-01  2.406D-04
    9.225000   -5.2435717290211D-01  2.427D-04
    9.250000   -5.2435982372233D-01  2.449D-04
    9.275000   -5.2435854346825D-01  2.470D-04
    9.300000   -5.2435345755087D-01  2.491D-04
    9.325000   -5.2434468883378D-01  2.512D-04
    9.350000   -5.2433235765498D-01  2.532D-04
    9.375000   -5.2431658184965D-01  2.552D-04
    9.400000   -5.2429747677376D-01  2.572D-04
    9.425000   -5.2427515532867D-01  2.591D-04
    9.450000   -5.2424972798638D-01  2.610D-04
    9.475000   -5.2422130281565D-01  2.629D-04
    9.500000   -5.2418998550868D-01  2.648D-04
    9.525000   -5.2415587940855D-01  2.666D-04
    9.550000   -5.2411908553721D-01  2.684D-04
    9.575000   -5.2407970262395D-01  2.701D-04
    9.600000   -5.2403782713444D-01  2.719D-04
    9.625000   -5.2399355330024D-01  2.736D-04
    9.650000   -5.2394697314859D-01  2.752D-04
    9.675000   -5.2389817653274D-01  2.769D-04
    9.700000   -5.2384725116244D-01  2.785D-04
    9.725000   -5.2379428263483D-01  2.800D-04
    9.750000   -5.2373935446553D-01  2.816D-04
    9.775000   -5.2368254811991D-01  2.831D-04
    9.800000   -5.2362394304460D-01  2.846D-04
    9.825000   -5.2356361669910D-01  2.860D-04
    9.850000   -5.2350164458751D-01  2.875D-04
    9.875000   -5.2343810029029D-01  2.888D-04
    9.900000   -5.2337305549617D-01  2.902D-04
    9.925000   -5.2330658003397D-01  2.915D-04
    9.950000   -5.2323874190446D-01  2.928D-04
    9.975000   -5.2316960731220D-01  2.941D-04
   10.000000   -5.2309924069729D-01  2.953D-04
   10.025000   -5.2302770476700D-01  2.965D-04
   10.050000   -5.2295506052740D-01  2.977D-04
   10.075000   -5.2288136731476D-01  2.989D-04
   10.100000   -5.2280668282683D-01  3.000D-04
   10.125000   -5.2273106315398D-01  3.011D-04
   10.150000   -5.2265456281008D-01  3.021D-04
   10.175000   -5.2257723476329D-01  3.032D-04
   10.200000   -5.2249913046652D-01  3.042D-04
   10.225000   -5.2242029988768D-01  3.051D-04
   10.250000   -5.2234079153976D-01  3.061D-04
   10.275000   -5.2226065251049D-01  3.070D-04
   10.300000   -5.2217992849189D-01  3.079D-04
   10.325000   -5.2209866380942D-01  3.088D-04
   10.350000   -5.2201690145086D-01  3.096D-04
   10.375000   -5.2193468309489D-01  3.104D-04
   10.400000   -5.2185204913934D-01  3.112D-04
   10.425000   -5.2176903872912D-01  3.119D-04
   10.450000   -5.2168568978384D-01  3.126D-04
   10.475000   -5.2160203902498D-01  3.133D-04
   10.500000   -5.2151812200287D-01  3.140D-04
   10.525000   -5.2143397312317D-01  3.147D-04
   10.550000   -5.2134962567311D-01  3.153D-04
   10.575000   -5.2126511184723D-01  3.159D-04
   10.600000   -5.2118046277289D-01  3.164D-04
   10.625000   -5.2109570853533D-01  3.170D-04
   10.650000   -5.2101087820233D-01  3.175D-04
   10.675000   -5.2092599984856D-01  3.180D-04
   10.700000   -5.2084110057951D-01  3.185D-04
   10.725000   -5.2075620655505D-01  3.189D-04
   10.750000   -5.2067134301257D-01  3.194D-04
   10.775000   -5.2058653428979D-01  3.198D-04
   10.800000   -5.2050180384718D-01  3.201D-04
   10.825000   -5.2041717428993D-01  3.205D-04
   10.850000   -5.2033266738959D-01  3.208D-04
   10.875000   -5.2024830410536D-01  3.211D-04
   10.900000   -5.2016410460491D-01  3.214D-04
   10.925000   -5.2008008828489D-01  3.217D-04
   10.950000   -5.1999627379099D-01  3.219D-04
   10.975000   -5.1991267903773D-01  3.222D-04
   11.000000   -5.1982932122776D-01  3.224D-04
   11.025000   -5.1974621687087D-01  3.225D-04
   11.050000   -5.1966338180256D-01  3.227D-04
   11.075000   -5.1958083120231D-01  3.228D-04
   11.100000   -5.1949857961144D-01  3.230D-04
   11.125000   -5.1941664095060D-01  3.231D-04
   11.150000   -5.1933502853698D-01  3.232D-04
   11.175000   -5.1925375510103D-01  3.232D-04
   11.200000   -5.1917283280299D-01  3.233D-04
   11.225000   -5.1909227324892D-01  3.233D-04
   11.250000   -5.1901208750649D-01  3.233D-04
   11.275000   -5.1893228612038D-01  3.233D-04
   11.300000   -5.1885287912739D-01  3.233D-04
   11.325000   -5.1877387607115D-01  3.232D-04
   11.350000   -5.1869528601658D-01  3.232D-04
   11.375000   -5.1861711756395D-01  3.231D-04
   11.400000   -5.1853937886271D-01  3.230D-04
   11.425000   -5.1846207762492D-01  3.229D-04
   11.450000   -5.1838522113843D-01  3.228D-04
   11.475000   -5.1830881627972D-01  3.226D-04
   11.500000   -5.1823286952650D-01  3.225D-04
   11.525000   -5.1815738696990D-01  3.223D-04
   11.550000   -5.1808237432650D-01  3.221D-04
   11.575000   -5.1800783695000D-01  3.219D-04
   11.600000   -5.1793377984261D-01  3.217D-04
   11.625000   -5.1786020766621D-01  3.215D-04
   11.650000   -5.1778712475315D-01  3.213D-04
   11.675000   -5.1771453511693D-01  3.210D-04
   11.700000   -5.1764244246243D-01  3.207D-04
   11.725000   -5.1757085019607D-01  3.205D-04
   11.750000   -5.1749976143556D-01  3.202D-04
   11.775000   -5.1742917901953D-01  3.199D-04
   11.800000   -5.1735910551680D-01  3.195D-04
   11.825000   -5.1728954323552D-01  3.192D-04
   11.850000   -5.1722049423201D-01  3.189D-04
   11.875000   -5.1715196031939D-01  3.185D-04
   11.900000   -5.1708394307595D-01  3.182D-04
   11.925000   -5.1701644385339D-01  3.178D-04
   11.950000   -5.1694946378474D-01  3.174D-04
   11.975000   -5.1688300379213D-01  3.170D-04
   12.000000   -5.1681706459436D-01  3.166D-04
   12.025000   -5.1675164671420D-01  3.162D-04
   12.050000   -5.1668675048557D-01  3.158D-04
   12.075000   -5.1662237606048D-01  3.153D-04
   12.100000   -5.1655852341581D-01  3.149D-04
   12.125000   -5.1649519235986D-01  3.144D-04
   12.150000   -5.1643238253874D-01  3.140D-04
   12.175000   -5.1637009344265D-01  3.135D-04
   12.200000   -5.1630832441183D-01  3.130D-04
   12.225000   -5.1624707464251D-01  3.125D-04
   12.250000   -5.1618634319258D-01  3.120D-04
   12.275000   -5.1612612898712D-01  3.115D-04
   12.300000   -5.1606643082383D-01  3.110D-04
   12.325000   -5.1600724737823D-01  3.105D-04
   12.350000   -5.1594857720875D-01  3.100D-04
   12.375000   -5.1589041876165D-01  3.094D-04
   12.400000   -5.1583277037581D-01  3.089D-04
   12.425000   -5.1577563028740D-01  3.083D-04
   12.450000   -5.1571899663435D-01  3.078D-04
   12.475000   -5.1566286746076D-01  3.072D-04
   12.500000   -5.1560724072111D-01  3.066D-04
   12.525000   -5.1555211428440D-01  3.061D-04
   12.550000   -5.1549748593816D-01  3.055D-04
   12.575000   -5.1544335339225D-01  3.049D-04
   12.600000   -5.1538971428269D-01  3.043D-04
   12.625000   -5.1533656617525D-01  3.037D-04
   12.650000   -5.1528390656896D-01  3.031D-04
   12.675000   -5.1523173289960D-01  3.025D-04
   12.700000   -5.1518004254290D-01  3.019D-04
   12.725000   -5.1512883281782D-01  3.013D-04
   12.750000   -5.1507810098963D-01  3.006D-04
   12.775000   -5.1502784427289D-01  3.000D-04
   12.800000   -5.1497805983438D-01  2.994D-04
   12.825000   -5.1492874479591D-01  2.988D-04
   12.850000   -5.1487989623702D-01  2.981D-04
   12.875000   -5.1483151119763D-01  2.975D-04
   12.900000   -5.1478358668057D-01  2.968D-04
   12.925000   -5.1473611965405D-01  2.962D-04
   12.950000   -5.1468910705404D-01  2.955D-04
   12.975000   -5.1464254578655D-01  2.949D-04
   13.000000   -5.1459643272989D-01  2.942D-04
   13.025000   -5.1455076473675D-01  2.935D-04
   13.050000   -5.1450553863633D-01  2.929D-04
   13.075000   -5.1446075123632D-01  2.922D-04
   13.100000   -5.1441639932482D-01  2.915D-04
   13.125000   -5.1437247967222D-01  2.909D-04
   13.150000   -5.1432898903299D-01  2.902D-04
   13.175000   -5.1428592414738D-01  2.895D-04
   13.200000   -5.1424328174317D-01  2.888D-04
   13.225000   -5.1420105853720D-01  2.881D-04
   13.250000   -5.1415925123696D-01  2.875D-04
   13.275000   -5.1411785654210D-01  2.868D-04
   13.300000   -5.1407687114582D-01  2.861D-04
   13.325000   -5.1403629173631D-01  2.854D-04
   13.350000   -5.1399611499805D-01  2.847D-04
   13.375000   -5.1395633761310D-01  2.840D-04
   13.400000   -5.1391695626235D-01  2.833D-04
   13.425000   -5.1387796762670D-01  2.826D-04
   13.450000   -5.1383936838816D-01  2.819D-04
   13.475000   -5.1380115523102D-01  2.812D-04
   13.500000   -5.1376332484284D-01  2.805D-04
   13.525000   -5.1372587391548D-01  2.798D-04
   13.550000   -5.1368879914609D-01  2.791D-04
   13.575000   -5.1365209723800D-01  2.784D-04
   13.600000   -5.1361576490162D-01  2.777D-04
   13.625000   -5.1357979885532D-01  2.770D-04
   13.650000   -5.1354419582621D-01  2.763D-04
   13.675000   -5.1350895255095D-01  2.756D-04
   13.700000   -5.1347406577648D-01  2.749D-04
   13.725000   -5.1343953226073D-01  2.742D-04
   13.750000   -5.1340534877331D-01  2.735D-04
   13.775000   -5.1337151209618D-01  2.728D-04
   13.800000   -5.1333801902422D-01  2.721D-04
   13.825000   -5.1330486636588D-01  2.713D-04
   13.850000   -5.1327205094370D-01  2.706D-04
   13.875000   -5.1323956959486D-01  2.699D-04
   13.900000   -5.1320741917170D-01  2.692D-04
   13.925000   -5.1317559654220D-01  2.685D-04
   13.950000   -5.1314409859043D-01  2.678D-04
   13.975000   -5.1311292221698D-01  2.671D-04
   14.000000   -5.1308206433940D-01  2.664D-04
   14.025000   -5.1305152189256D-01  2.657D-04
   14.050000   -5.1302129182904D-01  2.650D-04
   14.075000   -5.1299137111947D-01  2.643D-04
   14.100000   -5.1296175675285D-01  2.636D-04
   14.125000   -5.1293244573687D-01  2.629D-04
   14.150000   -5.1290343509818D-01  2.622D-04
   14.175000   -5.1287472188268D-01  2.615D-04
   14.200000   -5.1284630315579D-01  2.608D-04
   14.225000   -5.1281817600261D-01  2.601D-04
   14.250000   -5.1279033752824D-01  2.594D-04
   14.275000   -5.1276278485790D-01  2.587D-04
   14.300000   -5.1273551513718D-01  2.580D-04
   14.325000   -5.1270852553216D-01  2.573D-04
   14.350000   -5.1268181322963D-01  2.567D-04
   14.375000   -5.1265537543715D-01  2.560D-04
   14.400000   -5.1262920938328D-01  2.553D-04
   14.425000   -5.1260331231764D-01  2.546D-04
   14.450000   -5.1257768151101D-01  2.539D-04
   14.475000   -5.1255231425546D-01  2.532D-04
   14.500000   -5.1252720786442D-01  2.525D-04
   14.525000   -5.1250235967274D-01  2.519D-04
   14.550000   -5.1247776703679D-01  2.512D-04
   14.575000   -5.1245342733446D-01  2.505D-04
   14.600000   -5.1242933796522D-01  2.498D-04
   14.625000   -5.1240549635020D-01  2.491D-04
   14.650000   -5.1238189993213D-01  2.485D-04
   14.675000   -5.1235854617544D-01  2.478D-04
   14.700000   -5.1233543256619D-01  2.471D-04
   14.725000   -5.1231255661214D-01  2.465D-04
   14.750000   -5.1228991584267D-01  2.458D-04
   14.775000   -5.1226750780883D-01  2.451D-04
   14.800000   -5.1224533008327D-01  2.445D-04
   14.825000   -5.1222338026024D-01  2.438D-04
   14.850000   -5.1220165595552D-01  2.432D-04
   14.875000   -5.1218015480642D-01  2.425D-04
   14.900000   -5.1215887447169D-01  2.419D-04
   14.925000   -5.1213781263148D-01  2.412D-04
   14.950000   -5.1211696698730D-01  2.406D-04
   14.975000   -5.1209633526192D-01  2.399D-04
   15.000000   -5.1207591519934D-01  2.393D-04
   15.025000   -5.1205570456466D-01  2.386D-04
   15.050000   -5.1203570114406D-01  2.380D-04
   15.075000   -5.1201590274468D-01  2.373D-04
   15.100000   -5.1199630719452D-01  2.367D-04
   15.125000   -5.1197691234241D-01  2.361D-04
   15.150000   -5.1195771605784D-01  2.354D-04
   15.175000   -5.1193871623090D-01  2.348D-04
   15.200000   -5.1191991077217D-01  2.342D-04
   15.225000   -5.1190129761262D-01  2.336D-04
   15.250000   -5.1188287470350D-01  2.329D-04
   15.275000   -5.1186464001621D-01  2.323D-04
   15.300000   -5.1184659154221D-01  2.317D-04
   15.325000   -5.1182872729289D-01  2.311D-04
   15.350000   -5.1181104529946D-01  2.305D-04
   15.375000   -5.1179354361280D-01  2.298D-04
   15.400000   -5.1177622030338D-01  2.292D-04
   15.425000   -5.1175907346111D-01  2.286D-04
   15.450000   -5.1174210119520D-01  2.280D-04
   15.475000   -5.1172530163407D-01  2.274D-04
   15.500000   -5.1170867292517D-01  2.268D-04
   15.525000   -5.1169221323488D-01  2.262D-04
   15.550000   -5.1167592074836D-01  2.256D-04
   15.575000   -5.1165979366945D-01  2.250D-04
   15.600000   -5.1164383022047D-01  2.244D-04
   15.625000   -5.1162802864215D-01  2.239D-04
   15.650000   -5.1161238719343D-01  2.233D-04
   15.675000   -5.1159690415137D-01  2.227D-04
   15.700000   -5.1158157781098D-01  2.221D-04
   15.725000   -5.1156640648511D-01  2.215D-04
   15.750000   -5.1155138850426D-01  2.210D-04
   15.775000   -5.1153652221649D-01  2.204D-04
   15.800000   -5.1152180598723D-01  2.198D-04
   15.825000   -5.1150723819917D-01  2.192D-04
   15.850000   -5.1149281725211D-01  2.187D-04
   15.875000   -5.1147854156280D-01  2.181D-04
   15.900000   -5.1146440956484D-01  2.176D-04
   15.925000   -5.1145041970845D-01  2.170D-04
   15.950000   -5.1143657046044D-01  2.164D-04
   15.975000   -5.1142286030396D-01  2.159D-04
   16.000000   -5.1140928773841D-01  2.153D-04
   16.025000   -5.1139585127932D-01  2.148D-04